TITLE = "B00001"
VARIABLES = "x", "y", "u", "v", "sn"
ZONE T="Frame 0", I=107, J=67
6 798 0.498595 -1.116457 2.046
18 798 0.776086 -0.631399 1.985
30 798 0.717183 -0.249484 1.318
42 798 -1.044621 -1.809116 1.100
54 798 -4.956739 -5.708372 1.150
66 798 -10.014589 -13.667518 2.015
78 798 -14.055134 -21.228166 2.260
90 798 -15.944690 -26.971961 1.016
102 798 -15.867161 -31.148192 1.017
114 798 -21.275743 -30.948772 1.015
126 798 -26.684325 -30.749351 1.018
138 798 -22.844128 -24.952764 1.214
150 798 -19.003932 -19.156177 1.151
162 798 -12.373376 -16.116731 1.063
174 798 -5.300755 -12.627618 1.063
186 798 -9.385066 -6.473445 1.327
198 798 -13.469376 -0.319271 1.347
210 798 -14.076855 0.067874 1.103
222 798 -14.684334 0.455020 1.520
234 798 -15.291813 0.842166 1.083
246 798 -15.899292 1.229311 1.963
258 798 -14.665454 0.366570 1.613
270 798 -14.028319 0.395342 3.044
282 798 -14.071038 0.464448 3.508
294 798 -14.172442 0.538482 5.128
306 798 -14.117927 0.596966 5.428
318 798 -13.932118 0.504971 2.502
330 798 -13.826271 0.790406 1.609
342 798 -13.485988 0.699098 1.843
354 798 -13.077663 0.298532 2.032
366 798 -12.611293 -0.569482 2.517
378 798 -12.688898 -0.666887 2.810
390 798 -13.497742 -0.132664 1.630
402 798 -13.989105 0.233213 1.859
414 798 -14.063109 0.485977 3.607
426 798 -14.076678 0.637582 3.189
438 798 -14.090246 0.789188 4.731
450 798 -13.774798 0.936900 4.228
462 798 -13.300919 1.074503 2.013
474 798 -13.034444 0.927919 3.467
486 798 -13.087845 -0.058042 4.754
498 798 -13.373828 -0.988968 5.711
510 798 -13.445181 -1.593979 2.563
522 798 -12.894499 -1.775626 2.044
534 798 -11.923858 -1.333026 14.057
546 798 -11.482823 -0.904388 10.314
558 798 -11.460442 -0.830695 6.950
570 798 -11.364729 -0.974901 1.633
582 798 -11.169795 -0.957091 2.993
594 798 -10.874694 -0.591327 3.617
606 798 -10.571367 -0.529105 3.074
618 798 -9.923598 -1.334168 1.967
630 798 -9.710080 -2.599258 2.943
642 798 -9.496562 -3.864347 3.112
654 798 -13.850837 -1.608301 1.926
666 798 -13.553803 -1.481295 1.020
678 798 -13.256769 -1.354289 1.588
690 798 -12.959735 -1.227283 3.494
702 798 -12.662416 -2.123147 2.685
714 798 -11.770737 -2.781450 1.380
726 798 -11.094883 -2.293993 1.927
738 798 -10.973745 -0.399607 2.254
750 798 -11.874195 -0.205029 1.305
762 798 -12.520815 -0.514723 1.257
774 798 -13.167435 -0.824417 1.022
786 798 -10.720768 0.053212 1.059
798 798 -9.086852 0.443889 1.016
810 798 -8.876804 1.916430 1.599
822 798 -9.135639 3.138756 2.215
834 798 -8.622246 3.591433 1.210
846 798 -8.973153 3.581038 1.337
858 798 -9.720671 3.079834 1.033
870 798 -10.186124 2.696405 1.078
882 798 -9.404882 2.819962 1.156
894 798 -7.041657 -0.173037 1.204
906 798 -4.678432 -3.166036 2.027
918 798 -1.138572 -21.969243 1.543
930 798 0.752356 -19.530200 1.668
942 798 2.643283 -17.091157 1.212
954 798 2.823551 -13.749866 1.047
966 798 0.227492 -10.370474 1.021
978 798 -2.368567 -6.991081 1.767
990 798 -4.964626 -3.611689 2.485
1002 798 -7.560685 -0.232296 2.273
1014 798 -8.415854 -0.064566 1.606
1026 798 -9.029914 0.128536 1.058
1038 798 -9.215804 0.274145 1.160
1050 798 -8.636888 0.220898 2.102
1062 798 -8.057973 0.167651 1.148
1074 798 -7.479058 0.114404 1.194
1086 798 -6.900143 0.061156 3.509
1098 798 -5.146159 0.319912 1.351
1110 798 -3.392175 0.578669 1.047
1122 798 -1.638192 0.837425 1.030
1134 798 -2.522969 -0.306054 1.538
1146 798 1.565909 -0.430718 1.164
1158 798 5.654787 -0.555382 1.028
1170 798 9.743666 -0.680045 1.540
1182 798 13.832544 -0.804709 1.178
1194 798 9.096089 2.032189 1.031
1206 798 4.359635 4.869087 1.001
1218 798 -0.376819 7.705985 1.174
1230 798 -1.411579 5.044001 1.617
1242 798 -2.446339 2.382017 1.377
1254 798 -3.481099 -0.279967 1.422
1266 798 0.000000 -0.000000 1.114
1278 798 0.000000 -0.000000 1.114
6 786 -0.489192 -1.749739 2.081
18 786 0.033378 -0.375679 2.047
30 786 0.169909 0.508207 1.360
42 786 -1.905203 0.063504 1.107
54 786 -5.683055 -3.201549 1.025
66 786 -10.414564 -9.794261 1.841
78 786 -13.831365 -17.075586 2.414
90 786 -15.727538 -22.543522 1.102
102 786 -16.387645 -26.145953 1.066
114 786 -17.111356 -29.433915 1.017
126 786 -22.002558 -26.191107 1.037
138 786 -20.963650 -22.050840 1.184
150 786 -19.924743 -17.910574 1.154
162 786 -16.408122 -14.774879 1.032
174 786 -6.549139 -11.547470 1.040
186 786 -0.394728 -7.305780 1.305
198 786 -8.757683 -1.286285 1.230
210 786 -15.832335 1.485587 1.044
222 786 -18.496219 1.037045 1.626
234 786 -17.463235 1.136829 1.003
246 786 -16.430251 1.236612 1.886
258 786 -15.010026 0.394413 1.603
270 786 -14.397791 0.501925 2.765
282 786 -14.100693 0.553857 3.509
294 786 -14.063117 0.637208 5.416
306 786 -14.071383 0.672437 5.146
318 786 -13.931075 0.664736 2.519
330 786 -13.820144 0.814283 1.628
342 786 -13.483130 0.857849 2.058
354 786 -13.124620 0.208536 2.200
366 786 -12.722613 -0.614348 2.554
378 786 -12.766573 -0.854013 3.205
390 786 -13.521177 -0.465346 1.633
402 786 -13.940333 -0.169769 1.696
414 786 -13.965625 0.072626 3.423
426 786 -14.116780 0.434123 2.898
438 786 -13.873819 0.537251 4.802
450 786 -13.612318 0.812338 4.557
462 786 -13.266799 0.984987 2.159
474 786 -13.088499 0.858259 3.459
486 786 -13.284728 -0.132046 4.885
498 786 -13.543216 -1.296404 5.555
510 786 -13.740775 -1.742689 2.653
522 786 -13.171797 -1.953760 2.074
534 786 -12.182758 -1.529647 14.597
546 786 -11.640148 -1.094094 11.158
558 786 -11.546002 -0.898080 7.637
570 786 -11.388791 -0.906164 1.647
582 786 -11.125660 -0.750049 3.179
594 786 -10.808503 -0.283016 2.785
606 786 -10.748070 -0.076818 2.953
618 786 -10.392669 -0.898360 2.081
630 786 -9.751621 -2.613795 2.348
642 786 -9.961744 -3.585012 3.158
654 786 -12.402243 -2.434253 1.917
666 786 -12.679672 -1.868570 1.009
678 786 -12.532001 -1.057409 1.714
690 786 -12.808605 -1.209875 3.576
702 786 -12.727397 -1.931134 2.834
714 786 -12.105040 -2.634001 1.409
726 786 -11.406622 -2.415679 1.956
738 786 -11.368066 -0.963835 2.145
750 786 -12.312031 -0.469460 1.354
762 786 -12.924643 -0.544178 1.459
774 786 -13.537254 -0.618896 1.070
786 786 -10.875938 0.225003 1.114
798 786 -9.820170 0.584119 1.044
810 786 -9.349846 2.398818 1.526
822 786 -9.025688 3.413406 2.439
834 786 -8.272486 3.376954 1.110
846 786 -7.519283 3.340501 1.234
858 786 -9.675049 2.212462 1.079
870 786 -10.589669 1.342621 1.177
882 786 -10.508079 1.366690 1.260
894 786 -9.147238 5.847969 1.111
906 786 -5.898689 -5.908689 1.623
918 786 -3.149444 -16.638777 1.645
930 786 -2.622948 -16.280630 1.778
942 786 0.685210 -9.802317 1.269
954 786 1.075704 -6.024986 1.060
966 786 -1.856295 -2.767106 1.021
978 786 -6.547384 -0.007655 2.036
990 786 -7.352460 0.253843 2.465
1002 786 -8.008807 -0.131740 2.186
1014 786 -8.708552 -0.332209 1.706
1026 786 -9.187311 -1.097578 1.153
1038 786 -9.360379 -0.931832 1.085
1050 786 -9.404593 -0.648164 1.886
1062 786 -9.097143 -1.186257 1.124
1074 786 -8.718169 -0.796878 1.377
1086 786 -7.957608 -0.058179 2.799
1098 786 -6.752112 0.458999 1.066
1110 786 -2.067806 1.617498 1.070
1122 786 -3.699502 1.270977 1.107
1134 786 -3.651752 0.251111 1.609
1146 786 2.816755 0.698309 1.230
1158 786 9.285261 1.145506 1.047
1170 786 10.594756 -0.121033 1.506
1182 786 11.904251 -1.387573 1.177
1194 786 7.743701 3.689316 1.084
1206 786 -0.682431 6.314920 1.001
1218 786 -5.323944 7.235167 1.148
1230 786 -5.921296 6.747567 1.574
1242 786 -7.624467 2.829017 1.425
1254 786 -8.939093 -0.558061 1.448
1266 786 -2.117214 0.192821 1.070
1278 786 3.113497 1.029680 1.070
6 774 -1.476980 -2.383020 2.307
18 774 0.211507 -1.032063 2.184
30 774 1.318068 0.143540 2.139
42 774 -0.361917 0.037240 1.307
54 774 -2.903615 -2.879388 1.284
66 774 -7.174842 -8.549336 1.237
78 774 -11.713067 -15.688022 1.392
90 774 -14.635241 -19.748060 1.197
102 774 -17.399336 -21.043012 1.422
114 774 -19.019879 -22.310020 1.280
126 774 -20.540215 -20.442668 1.642
138 774 -22.070046 -16.916824 1.048
150 774 -21.218504 -14.916438 1.008
162 774 -17.741602 -13.299959 1.027
174 774 -11.567339 -9.749334 1.100
186 774 0.168110 -5.676543 1.033
198 774 -2.625962 -1.900313 1.091
210 774 -11.713141 1.435078 1.472
222 774 -16.025096 0.976402 1.703
234 774 -16.271529 1.069038 1.242
246 774 -15.401643 0.746920 6.034
258 774 -14.829668 0.463371 2.489
270 774 -14.048279 0.471212 2.656
282 774 -13.869702 0.731845 5.617
294 774 -14.036183 0.694996 5.559
306 774 -14.098903 0.688379 6.413
318 774 -14.010437 0.823999 3.582
330 774 -13.818657 0.679161 2.996
342 774 -13.444454 0.499492 1.856
354 774 -13.134345 0.109833 2.939
366 774 -12.707446 -0.420511 4.393
378 774 -12.790010 -0.899197 1.601
390 774 -13.605101 -0.556597 1.706
402 774 -13.675815 -0.399196 2.710
414 774 -13.486952 -0.367227 2.510
426 774 -13.623440 0.225839 1.731
438 774 -13.372428 0.461662 4.699
450 774 -13.196919 0.856632 2.281
462 774 -12.851971 1.248191 1.159
474 774 -12.723532 1.371672 2.423
486 774 -13.015325 0.342586 3.426
498 774 -13.427560 -0.754487 4.685
510 774 -13.734569 -1.521602 4.196
522 774 -13.202544 -1.895831 2.355
534 774 -12.294572 -1.608870 5.749
546 774 -11.819627 -1.291176 4.391
558 774 -11.692583 -1.104864 3.578
570 774 -11.510424 -0.949631 1.605
582 774 -11.195980 -0.643609 4.442
594 774 -10.777207 -0.000812 1.812
606 774 -10.741239 0.061802 2.858
618 774 -11.065227 -0.226548 2.579
630 774 -10.694703 -1.788713 2.514
642 774 -10.426925 -3.305677 4.462
654 774 -11.083510 -3.201922 2.058
666 774 -11.239965 -2.962413 1.505
678 774 -11.696196 -1.429884 2.276
690 774 -12.290697 -0.987680 3.017
702 774 -12.583646 -1.622439 4.152
714 774 -12.150412 -2.057513 2.156
726 774 -11.456555 -2.130326 3.771
738 774 -10.955254 -1.461692 1.292
750 774 -13.168697 0.131843 1.131
762 774 -14.175228 1.402725 1.762
774 774 -15.181759 2.673606 1.601
786 774 -11.239016 1.569486 1.600
798 774 -10.092827 1.860910 1.309
810 774 -9.822888 2.881205 1.469
822 774 -9.175540 4.059197 1.392
834 774 -7.932999 3.854222 1.067
846 774 -6.690458 3.649248 1.420
858 774 -9.746211 1.965852 1.185
870 774 -11.003108 0.994967 1.616
882 774 -11.090246 1.300678 2.394
894 774 -9.823908 0.292792 10.114
906 774 -7.606584 -5.604452 1.338
918 774 -5.771773 -10.884543 1.459
930 774 -4.993400 -9.855284 1.446
942 774 -4.247993 -3.066212 1.145
954 774 -1.225189 -0.417056 1.152
966 774 -7.036775 2.540670 1.191
978 774 -7.802087 1.373468 1.459
990 774 -8.475414 0.739196 1.132
1002 774 -8.994532 -0.196739 1.664
1014 774 -9.597398 -0.704673 2.704
1026 774 -9.929248 -1.241471 2.562
1038 774 -9.763671 -0.925217 1.827
1050 774 -9.702989 -0.625257 2.209
1062 774 -9.407426 -1.294191 3.596
1074 774 -9.297824 -0.820564 4.897
1086 774 -9.327049 -0.073601 3.713
1098 774 -8.798209 0.556327 8.915
1110 774 -7.884254 0.940301 2.229
1122 774 -8.258811 1.435715 1.351
1134 774 -7.723512 2.061748 1.050
1146 774 -5.377825 2.307139 1.309
1158 774 3.048460 -0.007400 1.060
1170 774 6.401334 -0.110887 1.015
1182 774 9.754209 -0.214374 1.100
1194 774 -3.984517 0.851922 1.084
1206 774 -8.928301 4.560301 1.119
1218 774 -10.002845 5.462105 1.005
1230 774 -14.349419 3.216809 1.059
1242 774 -14.092436 1.717107 1.329
1254 774 -12.146516 0.593314 1.318
1266 774 -10.132761 -0.018917 1.035
1278 774 -9.724099 -0.532876 1.035
6 762 0.567149 -3.723461 1.121
18 762 4.560026 -2.245801 1.129
30 762 5.353220 -1.665966 1.281
42 762 0.885910 -0.129362 1.154
54 762 -0.549661 -2.755801 1.081
66 762 -3.431800 -9.124611 1.013
78 762 -8.566723 -14.532121 1.272
90 762 -13.976080 -17.488770 1.015
102 762 -17.028979 -18.959707 1.266
114 762 -19.425922 -19.338529 1.638
126 762 -20.750561 -19.336701 1.032
138 762 -21.423834 -17.993921 1.211
150 762 -23.415124 -16.670847 1.696
162 762 -20.688076 -14.764625 1.467
174 762 -10.045802 -7.052396 1.091
186 762 2.295277 -0.631500 1.102
198 762 -0.467643 2.127901 1.099
210 762 -7.593948 1.384569 1.164
222 762 -12.901014 1.079727 2.024
234 762 -14.545763 0.959456 1.315
246 762 -14.444430 0.694058 14.537
258 762 -14.614456 0.786170 16.955
270 762 -14.063849 0.907732 12.869
282 762 -13.661682 0.931991 1.850
294 762 -13.958430 0.820503 2.117
306 762 -14.054754 0.792769 8.979
318 762 -13.956748 0.710449 2.451
330 762 -13.757038 0.604737 3.064
342 762 -13.324487 0.591197 1.198
354 762 -13.093491 0.634066 2.619
366 762 -12.837395 0.426084 3.272
378 762 -12.486642 -0.141670 1.513
390 762 -13.112316 -0.072301 1.918
402 762 -13.172334 -0.183501 2.277
414 762 -13.086131 -0.143665 2.883
426 762 -12.991234 0.146255 1.686
438 762 -12.665410 0.547133 2.786
450 762 -12.598060 0.938767 2.741
462 762 -12.385687 1.335279 2.399
474 762 -12.459340 1.243949 2.353
486 762 -12.699737 0.578771 3.163
498 762 -13.147519 -0.611663 7.686
510 762 -13.374855 -1.346420 8.631
522 762 -13.218672 -1.869255 1.167
534 762 -12.400171 -1.735803 1.617
546 762 -12.108376 -1.585439 2.018
558 762 -12.022923 -1.508658 2.174
570 762 -12.034288 -1.345510 1.119
582 762 -11.438549 -0.866188 2.568
594 762 -10.819761 -0.073724 2.050
606 762 -10.734407 0.200423 1.734
618 762 -10.934398 -0.424366 2.303
630 762 -10.886425 -1.447493 4.504
642 762 -10.474093 -2.773077 1.996
654 762 -10.618701 -3.229989 2.784
666 762 -10.656823 -3.120191 1.747
678 762 -10.688575 -1.979156 3.184
690 762 -11.490949 -1.202777 2.524
702 762 -11.979617 -1.329228 2.525
714 762 -11.763392 -1.723607 2.015
726 762 -11.637813 -1.823377 3.495
738 762 -11.115428 -1.237805 1.680
750 762 -13.307531 0.656332 1.400
762 762 -15.419482 2.831391 1.523
774 762 -13.760066 3.251065 1.801
786 762 -10.960072 3.127513 1.174
798 762 -10.142968 3.203083 1.141
810 762 -10.316083 3.870490 1.555
822 762 -10.542595 4.548914 1.504
834 762 -9.668425 4.161009 1.503
846 762 -8.794254 3.773105 1.474
858 762 -10.332272 2.197816 1.283
870 762 -10.966674 1.320593 1.015
882 762 -11.302636 1.675988 1.366
894 762 -10.613556 2.498124 9.678
906 762 -9.354522 0.958984 1.413
918 762 -8.180785 -2.112047 1.402
930 762 -8.279194 -1.596001 1.736
942 762 -8.606757 1.982695 1.835
954 762 -4.605597 1.226898 2.002
966 762 -8.576551 2.087770 1.531
978 762 -9.486942 0.924778 1.292
990 762 -9.849426 0.631608 3.458
1002 762 -10.436599 0.257911 11.655
1014 762 -10.821118 -0.152281 9.951
1026 762 -10.502154 -0.341931 2.349
1038 762 -10.251770 -0.472140 2.602
1050 762 -10.001386 -0.602349 1.149
1062 762 -9.634827 -0.806150 1.018
1074 762 -9.598100 -0.500236 1.379
1086 762 -9.427812 -0.068004 3.174
1098 762 -10.007566 0.301222 1.858
1110 762 -9.450984 0.755190 2.000
1122 762 -8.935020 1.151177 1.504
1134 762 -8.273874 1.463790 1.012
1146 762 -6.307855 1.497986 1.345
1158 762 1.805973 -0.298358 1.785
1170 762 2.750465 -0.581095 1.909
1182 762 -1.512174 1.619100 1.422
1194 762 -8.442652 3.096901 1.582
1206 762 -13.684586 4.885672 1.998
1218 762 -14.714277 3.914979 1.166
1230 762 -17.476636 2.679701 1.002
1242 762 -14.910847 2.176199 1.353
1254 762 -14.374618 3.003737 1.001
1266 762 -12.115480 4.155209 1.391
1278 762 -10.975161 3.010942 1.391
6 750 10.976244 -4.673939 1.240
18 750 9.904384 -3.611621 1.292
30 750 9.302899 -3.891351 1.024
42 750 2.981351 -1.489683 1.158
54 750 3.757569 -3.687898 1.192
66 750 -0.111992 -9.857421 1.021
78 750 -4.205462 -10.236077 1.199
90 750 -11.514871 -12.611647 1.091
102 750 -17.174005 -13.597455 1.052
114 750 -18.281321 -15.973909 1.541
126 750 -18.670613 -19.015130 1.015
138 750 -20.777622 -19.071019 1.070
150 750 -20.960746 -15.966800 1.116
162 750 -19.709401 -14.728045 1.011
174 750 -11.725310 -8.907211 1.063
186 750 1.486768 -1.357461 1.150
198 750 0.281879 2.492848 1.005
210 750 -6.464460 1.863042 1.055
222 750 -12.152402 1.241921 1.619
234 750 -14.084684 1.404228 3.250
246 750 -14.298941 1.047649 7.352
258 750 -14.343649 0.988428 1.522
270 750 -14.009424 1.042253 3.010
282 750 -13.874210 1.167538 3.587
294 750 -13.870671 0.902860 1.191
306 750 -13.861516 0.959824 2.138
318 750 -13.732299 0.867311 3.428
330 750 -13.547272 0.649638 2.053
342 750 -13.263060 0.728461 2.344
354 750 -13.105369 0.859091 2.400
366 750 -12.893224 0.770974 2.858
378 750 -12.658623 0.070757 1.780
390 750 -12.993798 0.282415 1.024
402 750 -12.654447 0.272429 2.351
414 750 -12.623768 0.251479 2.944
426 750 -12.395364 0.339855 2.136
438 750 -12.075010 0.690296 2.497
450 750 -12.179610 0.770467 2.739
462 750 -12.159367 1.029488 2.367
474 750 -12.205696 1.109448 1.837
486 750 -12.411576 0.710314 2.923
498 750 -12.747687 -0.557117 2.705
510 750 -13.217935 -1.442924 2.176
522 750 -13.161417 -1.784345 2.930
534 750 -12.401032 -1.862270 2.187
546 750 -12.167276 -1.750252 2.733
558 750 -12.228318 -1.611008 2.443
570 750 -12.108799 -1.691646 1.637
582 750 -11.559650 -1.373632 1.604
594 750 -10.909838 -0.905445 3.514
606 750 -10.736947 -0.644027 2.795
618 750 -10.803570 -0.622185 5.694
630 750 -10.694938 -1.203760 2.577
642 750 -10.519595 -1.812167 2.133
654 750 -10.280584 -2.422184 3.504
666 750 -10.141794 -2.457148 1.884
678 750 -10.057663 -1.832655 2.087
690 750 -10.474881 -1.313240 2.613
702 750 -11.067245 -1.298909 4.427
714 750 -11.432994 -1.581996 2.330
726 750 -10.931347 -1.483330 4.718
738 750 -10.637354 -0.969310 1.809
750 750 -11.809819 0.538670 1.026
762 750 -13.314795 2.610737 1.103
774 750 -12.338373 3.828524 1.560
786 750 -9.854702 3.615862 1.550
798 750 -9.584528 3.910267 1.291
810 750 -10.561357 4.614306 1.316
822 750 -10.385393 4.692004 1.618
834 750 -10.746023 4.892409 1.244
846 750 -10.914994 3.899403 1.543
858 750 -10.918333 2.429779 1.560
870 750 -11.002860 1.712279 1.791
882 750 -10.459208 1.994981 1.489
894 750 -10.192260 2.832994 1.510
906 750 -9.268187 2.932538 1.221
918 750 -8.469134 1.451774 1.309
930 750 -8.147897 1.532350 1.302
942 750 -8.086315 2.978399 1.163
954 750 -7.986005 2.870851 1.006
966 750 -8.916345 2.529860 1.105
978 750 -10.176832 1.132060 1.718
990 750 -10.539683 0.693860 1.465
1002 750 -11.078535 0.513783 3.275
1014 750 -10.850977 0.567118 8.498
1026 750 -10.623419 0.620454 1.863
1038 750 -9.817045 0.552927 3.310
1050 750 -9.870962 0.027953 2.059
1062 750 -9.510511 0.015477 2.539
1074 750 -9.426722 -0.371663 1.774
1086 750 -9.528574 -0.062406 1.728
1098 750 -10.043309 0.048307 1.824
1110 750 -9.495066 0.156958 1.337
1122 750 -8.914736 0.503524 1.392
1134 750 -8.658132 1.020042 1.162
1146 750 -7.693727 1.122988 1.121
1158 750 -3.607101 0.612555 1.198
1170 750 -3.484069 1.564027 1.475
1182 750 -8.527666 4.599716 1.413
1194 750 -13.592562 6.252947 1.072
1206 750 -15.978500 5.229259 1.024
1218 750 -18.364438 4.205570 1.686
1230 750 -20.603852 2.142593 1.097
1242 750 -15.729258 2.635290 1.125
1254 750 -13.505640 4.706947 1.599
1266 750 -12.311274 7.023296 1.516
1278 750 -12.226223 6.554760 1.516
6 738 12.290936 -6.381032 1.001
18 738 12.075693 -6.463608 1.083
30 738 12.308204 -5.866462 1.959
42 738 7.282861 -3.870820 1.311
54 738 8.064799 -4.619996 1.015
66 738 8.506198 -4.604323 1.364
78 738 3.727875 -4.761762 1.483
90 738 -3.486949 -6.327184 1.665
102 738 -11.957779 -8.626363 1.042
114 738 -12.440910 -7.365889 1.106
126 738 -12.710265 -11.878987 1.014
138 738 -16.861937 -15.420765 1.085
150 738 -18.506369 -15.262753 1.127
162 738 -15.360210 -12.650981 1.074
174 738 -11.369429 -10.867114 1.168
186 738 0.678259 -2.083421 1.111
198 738 1.031400 2.857794 1.006
210 738 -5.334971 2.341514 1.022
222 738 -12.258463 1.243776 1.492
234 738 -14.667146 1.574565 1.288
246 738 -14.575009 1.321999 8.688
258 738 -14.294197 1.122427 1.630
270 738 -14.020553 1.108316 1.476
282 738 -14.198342 1.363105 1.947
294 738 -14.093345 1.162701 2.161
306 738 -13.942974 1.138783 3.408
318 738 -13.932164 1.065853 3.664
330 738 -13.473374 0.929623 4.012
342 738 -13.241990 0.801694 2.697
354 738 -13.231862 0.785197 2.636
366 738 -13.112971 0.857627 2.629
378 738 -13.005603 0.316980 2.322
390 738 -13.084178 0.401721 1.649
402 738 -12.362299 0.488205 2.084
414 738 -12.509229 0.422379 1.846
426 738 -12.405328 0.289225 2.523
438 738 -12.021116 0.426845 2.288
450 738 -11.933472 0.652209 2.768
462 738 -11.955104 0.956835 2.672
474 738 -12.019366 1.197298 2.636
486 738 -12.246185 0.621127 2.731
498 738 -12.536983 -0.231739 2.450
510 738 -12.933220 -1.027466 3.200
522 738 -13.062949 -1.580568 4.164
534 738 -12.717543 -1.552010 2.339
546 738 -12.226175 -1.915065 2.092
558 738 -12.524731 -1.530970 2.537
570 738 -12.289286 -1.906194 2.358
582 738 -11.709590 -1.787530 6.025
594 738 -11.105236 -1.525362 6.433
606 738 -10.741232 -1.182950 2.653
618 738 -10.475371 -1.007970 3.582
630 738 -10.319880 -0.646535 1.605
642 738 -10.478665 -0.560064 2.264
654 738 -10.162341 -0.885396 2.159
666 738 -9.744477 -1.348525 3.315
678 738 -9.503359 -1.576007 2.189
690 738 -9.761657 -1.451975 2.107
702 738 -10.169406 -1.292502 3.926
714 738 -10.081414 -1.503748 1.667
726 738 -9.901574 -1.361746 2.197
738 738 -9.266967 -1.115176 2.009
750 738 -9.725679 -0.180713 1.506
762 738 -10.780251 1.492947 2.140
774 738 -9.254159 2.227510 1.563
786 738 -8.391258 3.018758 1.374
798 738 -8.577839 3.551148 1.582
810 738 -9.814310 4.373393 1.199
822 738 -10.228191 4.835095 1.379
834 738 -10.432213 4.818499 1.826
846 738 -11.083817 4.262059 1.203
858 738 -11.061244 2.776097 2.048
870 738 -10.834791 2.079702 2.577
882 738 -10.051070 2.138481 2.203
894 738 -9.267836 2.464387 1.414
906 738 -8.735996 2.626971 2.205
918 738 -8.204157 2.789554 1.174
930 738 -7.684604 2.216218 1.007
942 738 -7.553060 2.448630 1.061
954 738 -7.801201 2.584517 1.477
966 738 -9.248143 1.920354 1.150
978 738 -10.158292 0.711553 1.403
990 738 -9.834972 0.367652 1.713
1002 738 -10.246046 0.584655 1.033
1014 738 -10.046404 1.018454 2.921
1026 738 -9.846762 1.452253 2.527
1038 738 -9.145750 1.258742 1.232
1050 738 -8.690938 0.493312 1.218
1062 738 -9.025756 -0.494575 1.540
1074 738 -9.177306 -0.054868 1.144
1086 738 -8.902661 0.831230 1.130
1098 738 -9.046003 0.397083 1.819
1110 738 -9.440515 0.403540 1.261
1122 738 -9.120641 0.517245 1.710
1134 738 -9.042389 0.576295 1.385
1146 738 -9.255680 0.882251 1.117
1158 738 -11.290828 2.401817 1.019
1170 738 -14.897863 4.594102 1.123
1182 738 -15.158039 8.170079 1.043
1194 738 -18.889740 9.860463 1.006
1206 738 -19.848430 8.196511 1.080
1218 738 -20.807120 6.532559 1.212
1230 738 -17.986909 2.699222 1.171
1242 738 -12.590274 3.523460 1.095
1254 738 -7.747736 5.464912 1.135
1266 738 -6.948231 6.433367 1.180
1278 738 -6.170364 5.671492 1.180
6 726 4.338724 -7.910430 1.657
18 726 0.992427 -3.809695 1.486
30 726 2.728748 -7.222876 1.693
42 726 4.127649 0.485984 1.358
54 726 7.928330 0.729811 1.131
66 726 7.530213 -0.392554 1.033
78 726 9.451879 1.600243 1.483
90 726 3.226130 0.158513 1.466
102 726 -7.062496 -3.972067 1.301
114 726 -7.202360 -3.651192 1.019
126 726 -9.972763 -9.055056 1.272
138 726 -12.548645 -12.247212 1.398
150 726 -11.784039 -11.218599 1.133
162 726 -11.011019 -10.573918 1.087
174 726 -9.681133 -3.326136 1.031
186 726 -1.996414 0.529077 1.137
198 726 -0.123499 -0.496291 1.315
210 726 -4.571175 0.907240 1.042
222 726 -9.873463 1.592782 1.016
234 726 -14.950199 1.591768 1.563
246 726 -14.877576 1.597116 6.558
258 726 -14.500905 1.174845 8.822
270 726 -14.079573 1.089400 4.576
282 726 -14.463500 1.148513 1.397
294 726 -14.406204 0.976330 1.975
306 726 -13.890102 1.123730 2.518
318 726 -13.721882 1.172704 4.072
330 726 -13.317945 1.104029 2.967
342 726 -13.133152 0.930661 2.636
354 726 -13.416735 0.836606 1.346
366 726 -13.520803 0.925372 2.070
378 726 -13.563556 0.474226 2.334
390 726 -13.312983 0.462683 1.892
402 726 -12.641975 0.502120 1.593
414 726 -12.528694 0.183528 1.652
426 726 -12.507234 -0.091654 1.476
438 726 -12.175994 0.196324 2.644
450 726 -12.023912 0.623987 2.349
462 726 -12.020085 0.874326 4.132
474 726 -12.128486 1.003717 3.783
486 726 -12.222162 0.771526 3.354
498 726 -12.318476 0.427006 2.692
510 726 -12.689805 -0.283899 2.742
522 726 -12.954754 -0.959086 3.039
534 726 -13.034055 -1.241749 2.218
546 726 -13.031933 -1.484315 2.840
558 726 -13.231755 -1.496881 3.114
570 726 -12.808408 -1.903571 1.578
582 726 -12.084388 -1.921413 2.318
594 726 -11.333534 -1.523156 3.933
606 726 -10.819261 -1.062643 4.242
618 726 -10.411687 -0.912119 3.752
630 726 -10.275706 -0.619341 1.966
642 726 -10.359012 -0.564871 1.766
654 726 -10.163423 -0.600434 2.873
666 726 -9.752360 -1.031901 3.090
678 726 -9.448053 -1.453634 2.731
690 726 -9.402679 -1.722981 3.364
702 726 -9.401045 -1.334475 2.895
714 726 -9.942888 -1.405288 1.632
726 726 -10.004278 -1.427807 1.582
738 726 -8.294125 -1.243215 2.709
750 726 -8.473105 -0.720570 2.372
762 726 -8.934218 -0.014869 1.873
774 726 -8.720673 0.407658 1.229
786 726 -8.747039 1.728534 2.114
798 726 -9.056275 2.689941 2.649
810 726 -8.852782 3.439115 1.044
822 726 -8.948783 3.892340 1.270
834 726 -9.730610 4.116092 1.390
846 726 -10.239307 3.869059 1.044
858 726 -10.629042 3.149164 2.815
870 726 -10.372349 2.457711 2.478
882 726 -9.623570 2.271062 3.069
894 726 -8.460296 2.619319 1.803
906 726 -8.209466 2.625843 1.393
918 726 -7.958637 2.632366 1.757
930 726 -7.595453 2.363090 1.834
942 726 -7.356428 1.990580 1.912
954 726 -8.134695 1.829315 1.617
966 726 -9.138912 1.259489 1.134
978 726 -9.342944 0.286524 1.011
990 726 -8.656145 0.084137 1.210
1002 726 -8.828357 0.514851 1.036
1014 726 -9.601512 2.169059 1.601
1026 726 -8.734740 2.196005 8.729
1038 726 -8.237777 2.064998 16.927
1050 726 -8.155639 0.958592 1.464
1062 726 -8.461090 0.135824 2.787
1074 726 -8.872451 0.818314 1.455
1086 726 -9.012075 1.813862 1.169
1098 726 -9.203167 2.001026 1.902
1110 726 -9.385963 0.650121 1.524
1122 726 -9.321317 0.362170 1.004
1134 726 -9.116378 1.158221 1.839
1146 726 -10.026494 2.165535 1.662
1158 726 -14.055621 4.007858 1.898
1170 726 -15.192422 4.750222 2.686
1182 726 -17.212613 9.638160 1.862
1194 726 -18.727798 10.904199 1.125
1206 726 -19.152519 9.937798 1.210
1218 726 -19.319055 8.501748 1.233
1230 726 -13.572888 3.205883 1.378
1242 726 -8.265000 3.720949 1.168
1254 726 -6.879842 4.563264 1.039
1266 726 -0.105684 5.515359 1.720
1278 726 -0.114505 4.788223 1.720
6 714 -20.599356 -11.054259 1.133
18 714 -10.090839 -1.155781 1.008
30 714 -7.224587 1.740831 1.301
42 714 -0.760206 6.180306 1.478
54 714 0.601579 4.611138 1.153
66 714 6.554228 3.819216 1.027
78 714 6.674980 2.621675 1.096
90 714 0.470493 0.658502 1.003
102 714 -5.656587 -2.344623 1.189
114 714 -6.794187 -2.657241 1.048
126 714 -7.235261 -6.231124 1.289
138 714 -10.036884 -11.081710 2.382
150 714 -8.573236 -10.121093 2.794
162 714 -5.280254 -7.020492 2.159
174 714 -5.678732 -1.781361 1.284
186 714 -0.829943 1.262101 1.059
198 714 0.858378 0.089456 1.116
210 714 -1.925144 0.980495 1.031
222 714 -6.848787 1.806652 1.072
234 714 -13.658292 1.767855 1.037
246 714 -14.993801 1.701521 5.282
258 714 -14.693663 1.338929 3.042
270 714 -14.560278 1.031015 3.620
282 714 -14.567893 0.948653 2.699
294 714 -14.272406 0.903012 4.348
306 714 -13.785462 1.062636 2.048
318 714 -13.467336 1.257203 1.995
330 714 -13.121602 1.283257 1.856
342 714 -12.930087 1.170567 1.183
354 714 -13.164474 1.079229 1.056
366 714 -13.520659 0.942771 2.144
378 714 -13.739747 0.728812 1.734
390 714 -13.613645 0.625566 2.016
402 714 -13.218911 0.690320 1.474
414 714 -12.765081 0.398358 1.108
426 714 -12.457927 0.049641 1.423
438 714 -12.143913 0.329403 1.507
450 714 -12.040928 0.742400 1.618
462 714 -12.133720 0.977151 3.664
474 714 -12.089079 0.924975 3.549
486 714 -11.908576 0.797443 4.123
498 714 -11.965960 0.892364 2.728
510 714 -12.409379 0.336845 2.624
522 714 -12.834745 -0.332574 3.167
534 714 -13.261088 -0.977108 2.319
546 714 -13.309536 -1.300337 3.850
558 714 -13.827747 -1.536129 3.235
570 714 -13.498544 -1.726561 2.011
582 714 -12.415888 -1.806403 1.744
594 714 -11.657283 -1.388828 2.540
606 714 -10.995766 -1.018895 1.842
618 714 -10.760489 -0.729114 2.962
630 714 -10.842683 -0.770344 1.707
642 714 -10.539913 -1.072436 3.142
654 714 -10.241063 -1.160900 2.565
666 714 -9.590122 -1.412116 2.333
678 714 -9.482911 -1.855046 1.771
690 714 -9.575820 -2.165397 3.681
702 714 -9.565977 -1.582847 2.363
714 714 -10.167407 -1.485997 2.168
726 714 -10.106982 -1.493867 2.036
738 714 -9.071082 -1.280432 2.333
750 714 -8.790418 -1.196152 2.739
762 714 -8.659778 -1.049866 3.456
774 714 -8.540119 -0.684176 3.102
786 714 -9.092431 0.529619 1.898
798 714 -9.198144 1.621987 2.321
810 714 -8.203181 2.270207 1.446
822 714 -7.941632 2.696059 2.248
834 714 -8.103831 3.545840 1.982
846 714 -9.025360 3.753572 1.675
858 714 -9.844674 3.479040 1.382
870 714 -9.644213 2.883699 3.747
882 714 -8.774390 2.349894 3.195
894 714 -7.994961 2.053058 1.067
906 714 -7.929839 2.752250 1.049
918 714 -7.548041 2.924530 1.341
930 714 -7.353388 2.699989 1.459
942 714 -7.235989 1.914232 2.038
954 714 -7.759816 1.238117 1.850
966 714 -8.708182 0.532501 1.059
978 714 -8.744318 -0.149818 1.007
990 714 -8.385507 -0.273496 1.438
1002 714 -8.077772 0.395883 1.039
1014 714 -8.301626 1.901300 1.196
1026 714 -7.747907 2.752713 79.123
1038 714 -7.838768 2.464385 24.368
1050 714 -8.015855 2.030641 6.603
1062 714 -8.165586 1.109721 1.267
1074 714 -8.760298 1.815959 2.602
1086 714 -9.110690 2.048010 1.600
1098 714 -9.670869 2.062128 1.136
1110 714 -9.456276 1.260671 1.167
1122 714 -8.853792 0.519706 1.363
1134 714 -8.484367 0.970992 1.362
1146 714 -9.469251 2.258043 2.256
1158 714 -11.174137 2.766050 1.083
1170 714 -15.486980 4.906341 1.033
1182 714 -16.769898 9.682234 1.100
1194 714 -18.565856 11.947936 1.259
1206 714 -19.248762 11.451182 1.108
1218 714 -12.878600 3.754452 1.939
1230 714 -11.668622 2.946333 1.367
1242 714 -7.989903 3.231638 1.124
1254 714 -6.011949 3.661615 1.416
1266 714 -0.690311 4.968651 1.422
1278 714 -0.183180 4.425180 1.422
6 702 -31.328852 7.589411 1.211
18 702 -26.867350 7.879957 1.132
30 702 -17.452627 10.204674 1.109
42 702 -6.962352 13.577639 1.026
54 702 0.803684 7.901578 1.066
66 702 2.358091 4.637017 1.080
78 702 1.820018 1.826718 1.015
90 702 -3.473476 0.824890 1.529
102 702 -9.207867 -0.277879 1.056
114 702 -10.799014 -1.716064 1.361
126 702 -10.575574 -5.066590 1.309
138 702 -9.843837 -8.553067 3.611
150 702 -7.653934 -8.067017 2.176
162 702 -2.052375 -2.923881 1.184
174 702 -1.676330 -0.236586 1.298
186 702 0.336529 1.995124 1.039
198 702 1.840254 0.675203 2.195
210 702 0.447820 1.038545 2.027
222 702 -5.114412 1.100189 1.160