TITLE = "B00032"
VARIABLES = "x", "y", "u", "v", "sn"
ZONE T="Frame 0", I=128, J=80
5 795 0.000000 -0.000000 1.187 
15 795 0.000000 -0.000000 1.187 
25 795 -0.002087 -2.721863 1.158 
35 795 1.011427 -3.190972 1.025 
45 795 2.204501 -4.639047 1.467 
55 795 0.925581 -6.924030 1.157 
65 795 -0.353340 -9.209014 1.201 
75 795 -1.632261 -11.493997 1.041 
85 795 -2.911181 -13.778981 1.292 
95 795 -4.015619 -13.224678 1.231 
105 795 -7.033246 -7.686632 1.309 
115 795 -10.050874 -2.148586 1.367 
125 795 -5.471455 1.127469 1.267 
135 795 1.630920 1.017420 1.058 
145 795 3.262019 1.474219 1.217 
155 795 2.701080 0.978424 1.076 
165 795 2.140140 0.482630 1.849 
175 795 -2.215890 -3.357828 2.081 
185 795 -4.027542 -1.475311 1.702 
195 795 -5.839193 0.407206 1.130 
205 795 -5.783601 0.647762 2.495 
215 795 -5.346579 0.998760 4.297 
225 795 -5.055886 1.552737 2.645 
235 795 -5.180207 2.366373 2.870 
245 795 -5.253542 2.400452 1.778 
255 795 -5.326877 2.434531 1.735 
265 795 -5.026957 2.098477 1.642 
275 795 -4.878995 2.035643 1.526 
285 795 -4.870620 1.876503 1.510 
295 795 -13.061264 5.697924 1.405 
305 795 -21.251908 9.519345 1.166 
315 795 -20.432060 10.432476 1.012 
325 795 -7.434868 2.153724 1.188 
335 795 -6.580038 2.217063 1.964 
345 795 -5.725208 2.280403 3.493 
355 795 -5.770297 2.624486 4.232 
365 795 -5.644314 2.575671 4.104 
375 795 -5.877068 2.661671 6.567 
385 795 -6.114643 2.574611 2.900 
395 795 -6.404787 2.708565 3.156 
405 795 -6.569451 2.948160 1.336 
415 795 -6.565750 3.421024 1.763 
425 795 -6.921715 3.485365 1.041 
435 795 -6.854449 3.560292 1.001 
445 795 -6.787184 3.635218 2.271 
455 795 -6.454638 3.577883 2.058 
465 795 -6.033008 2.994580 1.416 
475 795 -5.820004 2.996337 2.354 
485 795 -5.607000 2.998094 2.093 
495 795 -5.393996 2.999851 3.637 
505 795 -5.437812 3.149174 3.466 
515 795 -5.258822 3.154008 2.233 
525 795 -5.163698 3.196061 1.694 
535 795 -5.145572 3.055809 2.202 
545 795 -5.034015 2.734131 2.542 
555 795 -4.462425 2.627641 6.591 
565 795 -4.390903 2.829573 2.149 
575 795 -6.212374 3.811365 3.661 
585 795 -6.165927 3.799634 1.656 
595 795 -6.119481 3.787903 1.646 
605 795 -4.501042 3.550319 1.312 
615 795 -3.152705 2.731075 1.925 
625 795 -3.082250 2.687349 4.113 
635 795 -3.011795 2.643624 25.338 
645 795 -3.261046 2.814317 3.000 
655 795 -3.129720 2.903703 1.103 
665 795 -2.998394 2.993090 3.790 
675 795 -3.003488 2.698331 3.139 
685 795 -3.188151 2.240961 2.106 
695 795 -3.797780 2.372212 1.114 
705 795 -4.624447 3.019537 1.441 
715 795 -5.361492 3.996162 1.780 
725 795 -5.909757 5.016865 2.575 
735 795 -5.675154 5.714982 1.856 
745 795 -4.696489 5.996673 3.350 
755 795 -4.153762 5.411677 4.411 
765 795 -3.744501 4.570711 2.128 
775 795 -4.020148 3.963442 75.354 
785 795 -5.070859 3.943050 1.900 
795 795 -5.192514 3.940954 1.965 
805 795 -5.314168 3.938857 1.341 
815 795 -2.952988 0.873115 1.443 
825 795 -2.470948 -0.850581 1.666 
835 795 -1.988907 -2.574277 2.475 
845 795 -1.506867 -4.297973 2.344 
855 795 -1.024826 -6.021669 1.548 
865 795 -3.347976 2.002406 3.710 
875 795 -4.120768 4.100113 7.128 
885 795 -4.312187 3.996133 2.176 
895 795 -4.305547 4.013456 1.232 
905 795 -4.237124 3.924807 1.155 
915 795 -4.059847 3.858266 1.181 
925 795 -3.611447 3.758885 1.287 
935 795 -2.924315 3.522625 1.997 
945 795 -2.418504 2.724748 2.758 
955 795 -2.636780 1.877462 1.638 
965 795 -3.442783 1.394134 1.199 
975 795 -3.082417 -0.155893 1.817 
985 795 -2.722052 -1.705920 1.002 
995 795 -2.361687 -3.255947 1.041 
1005 795 -3.722810 1.535779 1.513 
1015 795 -3.858863 2.872075 1.701 
1025 795 -3.786403 3.010761 2.629 
1035 795 -3.650113 3.591374 2.549 
1045 795 -3.959051 4.373951 1.653 
1055 795 -3.198748 4.410763 1.100 
1065 795 -2.378927 4.217617 1.167 
1075 795 -2.700959 3.837012 1.430 
1085 795 -3.022992 3.456406 1.061 
1095 795 -3.272073 8.451819 1.280 
1105 795 -3.613610 6.984026 1.096 
1115 795 -3.955148 5.516234 1.214 
1125 795 -4.296685 4.048441 1.389 
1135 795 -3.053845 2.701313 1.166 
1145 795 -1.811005 1.354186 1.077 
1155 795 -0.568165 0.007058 1.512 
1165 795 0.087626 0.568755 1.058 
1175 795 5.916523 2.787368 1.222 
1185 795 4.250161 4.679178 1.407 
1195 795 2.583798 6.570988 1.095 
1205 795 0.917436 8.462799 1.048 
1215 795 -0.748926 10.354609 1.033 
1225 795 4.521105 4.609816 1.050 
1235 795 5.330005 4.616131 1.263 
1245 795 6.138904 4.622446 1.021 
1255 795 -3.111686 5.679354 1.475 
1265 795 0.000000 -0.000000 1.047 
1275 795 0.000000 -0.000000 1.051 
5 785 -1.817542 0.632946 1.187 
15 785 -1.655570 -0.246705 1.187 
25 785 -1.660653 -1.161790 1.158 
35 785 -0.219117 -1.959569 1.025 
45 785 1.204244 -3.934699 1.467 
55 785 1.931328 -7.461676 1.157 
65 785 2.008728 -9.513311 1.201 
75 785 -1.081198 -11.100267 1.041 
85 785 -5.343205 -12.382447 1.292 
95 785 -6.572904 -11.556095 1.231 
105 785 -7.707544 -6.884112 1.309 
115 785 -8.842183 -2.212129 1.367 
125 785 -3.392614 0.893005 1.267 
135 785 0.749509 0.866452 1.058 
145 785 2.002304 1.237563 1.217 
155 785 2.928261 1.703915 1.076 
165 785 0.892194 0.944360 1.849 
175 785 -3.162360 -2.451007 2.081 
185 785 -5.368142 -1.116959 1.702 
195 785 -5.565358 0.271545 1.130 
205 785 -5.636170 1.086075 2.495 
215 785 -5.608629 1.276045 4.297 
225 785 -5.239597 1.506462 2.645 
235 785 -5.399566 2.268313 2.870 
245 785 -5.762108 2.511238 1.778 
255 785 -5.463032 2.320420 1.735 
265 785 -5.154377 2.018990 1.642 
275 785 -4.982650 1.975882 1.526 
285 785 -4.784509 1.814713 1.510 
295 785 -5.026054 1.525971 1.405 
305 785 -19.732920 9.529513 1.166 
315 785 -18.345842 10.388068 1.012 
325 785 -5.539959 2.081489 1.188 
335 785 -5.325562 2.153261 1.964 
345 785 -5.111164 2.225034 3.493 
355 785 -5.577412 2.526236 4.232 
365 785 -5.801019 2.486037 4.104 
375 785 -6.027563 2.583302 6.567 
385 785 -6.261464 2.527948 2.900 
395 785 -6.595291 2.636892 3.156 
405 785 -6.693814 2.893407 1.336 
415 785 -6.566481 3.304481 1.763 
425 785 -6.850058 3.366870 1.041 
435 785 -6.805163 3.458787 1.001 
445 785 -6.760269 3.550705 2.271 
455 785 -6.421376 3.352503 2.058 
465 785 -6.034806 2.843669 1.416 
475 785 -5.454019 2.415745 2.354 
485 785 -5.160711 2.807090 2.093 
495 785 -5.422757 2.948006 3.637 
505 785 -5.484294 3.133520 3.466 
515 785 -5.320827 3.140998 2.233 
525 785 -5.220577 3.169370 1.694 
535 785 -5.220088 2.983754 2.202 
545 785 -5.178834 2.653628 2.542 
555 785 -4.717615 2.557245 6.591 
565 785 -4.718126 2.766842 2.149 
575 785 -6.464448 3.577219 3.661 
585 785 -6.808725 3.862697 1.656 
595 785 -6.342143 3.619593 1.646 
605 785 -4.805187 3.476911 1.312 
615 785 -3.415023 2.646914 1.925 
625 785 -2.973687 2.330380 4.113 
635 785 -3.157630 2.612960 25.338 
645 785 -3.394426 2.844605 3.000 
655 785 -3.358048 2.996323 1.103 
665 785 -3.278122 3.169805 3.790 
675 785 -3.264650 2.933798 3.139 
685 785 -3.359009 2.454965 2.106 
695 785 -3.801120 2.621006 1.114 
705 785 -4.546708 3.339357 1.441 
715 785 -5.289541 4.367289 1.780 
725 785 -5.834575 5.316173 2.575 
735 785 -5.685044 5.948322 1.856 
745 785 -4.874551 6.179702 3.350 
755 785 -4.452387 5.523454 4.411 
765 785 -4.018084 4.660998 2.128 
775 785 -4.249503 4.021120 75.354 
785 785 -5.128209 3.931063 1.900 
795 785 -5.215830 4.219772 1.965 
805 785 -5.489095 4.540551 1.341 
815 785 -4.027087 2.762330 1.443 
825 785 -2.281147 -0.959317 1.666 
835 785 -1.912277 -7.903714 2.475 
845 785 -1.939010 -8.874921 2.344 
855 785 -2.686952 -3.609508 1.548 
865 785 -3.434895 1.655905 3.710 
875 785 -4.213931 3.820518 7.128 
885 785 -4.400730 4.042491 2.176 
895 785 -4.244994 4.011440 1.232 
905 785 -4.159762 3.891404 1.155 
915 785 -4.038246 3.917979 1.181 
925 785 -3.574065 3.930462 1.287 
935 785 -2.829223 3.789139 1.997 
945 785 -2.417380 3.038021 2.758 
955 785 -2.521618 2.297852 1.638 
965 785 -3.196873 2.197157 1.199 
975 785 -2.812008 -4.634655 1.817 
985 785 -2.586043 -3.201793 1.002 
995 785 -2.360078 -1.768931 1.041 
1005 785 -3.585244 2.197436 1.513 
1015 785 -3.642856 3.178933 1.701 
1025 785 -3.659820 3.095896 2.629 
1035 785 -3.544764 3.651181 2.549 
1045 785 -3.605083 4.125970 1.653 
1055 785 -3.028339 3.961007 1.100 
1065 785 -2.179732 3.431102 1.167 
1075 785 -2.201950 3.843067 1.430 
1085 785 -2.224168 4.255032 1.061 
1095 785 -3.306258 7.076714 1.280 
1105 785 -4.104252 11.412337 1.096 
1115 785 -1.330930 10.727353 1.214 
1125 785 -4.725225 3.308256 1.389 
1135 785 -3.375072 -1.189896 1.166 
1145 785 -2.362947 -1.706163 1.077 
1155 785 -1.220770 -0.701705 1.512 
1165 785 -0.316129 -1.077253 1.058 
1175 785 5.169114 1.599037 1.222 
1185 785 3.871963 1.912315 1.407 
1195 785 -2.280380 19.328448 1.095 
1205 785 -2.035525 14.784718 1.048 
1215 785 -1.790669 10.240988 1.033 
1225 785 3.209604 5.210601 1.050 
1235 785 4.130897 4.978398 1.263 
1245 785 5.052190 4.746195 1.021 
1255 785 -2.689054 3.177260 1.475 
1265 785 -2.561839 4.955739 1.047 
1275 785 -2.230856 4.965777 1.051 
5 775 -2.014388 2.399805 1.306 
15 775 -1.781676 1.582479 1.306 
25 775 -1.886854 -0.240940 1.577 
35 775 -1.109522 -0.801149 1.313 
45 775 1.202112 -2.966306 2.190 
55 775 1.405767 -3.363945 1.345 
65 775 0.268726 -5.421395 1.107 
75 775 -2.570884 -2.765291 1.250 
85 775 -5.521535 -7.325842 1.065 
95 775 -5.903492 -7.786653 1.600 
105 775 -7.650907 -4.551988 1.031 
115 775 -6.733569 -2.118348 1.305 
125 775 -1.530009 0.219807 1.112 
135 775 -0.131901 0.715484 1.568 
145 775 0.742588 1.000907 1.229 
155 775 0.354579 1.041262 1.015 
165 775 -1.580903 -0.698035 1.825 
175 775 -3.691017 -0.524544 1.750 
185 775 -5.549585 0.138527 1.623 
195 775 -5.519161 0.831457 1.274 
205 775 -5.488738 1.524387 1.764 
215 775 -5.538301 1.198915 20.000 
225 775 -5.261458 1.259824 1.902 
235 775 -5.388492 1.793647 2.087 
245 775 -5.732831 1.921141 3.254 
255 775 -5.578374 1.907328 2.211 
265 775 -5.314502 1.979430 1.404 
275 775 -5.006017 2.383191 2.001 
285 775 -4.514972 2.000917 1.156 
295 775 -4.535027 1.606733 1.101 
305 775 -9.982351 4.332503 1.164 
315 775 -12.012474 6.124665 1.036 
325 775 -5.096607 1.605987 1.278 
335 775 -5.085708 1.667577 1.870 
345 775 -5.371601 2.154891 6.273 
355 775 -5.620025 2.343906 9.296 
365 775 -5.980699 2.399603 3.226 
375 775 -6.348916 2.386799 9.667 
385 775 -6.678920 2.475499 4.806 
395 775 -6.800166 2.562262 1.271 
405 775 -6.892784 2.727582 1.072 
415 775 -6.718309 2.864514 1.491 
425 775 -6.510417 3.164975 1.607 
435 775 -6.818804 3.218809 1.221 
445 775 -6.559398 3.395528 1.057 
455 775 -6.244915 2.903755 1.513 
465 775 -5.845358 2.297618 1.019 
475 775 -5.261653 2.253273 1.633 
485 775 -5.295466 2.658405 1.855 
495 775 -5.483082 2.872250 55.429 
505 775 -5.483381 3.142024 25.442 
515 775 -5.266320 3.423142 4.503 
525 775 -5.330708 3.318225 2.090 
535 775 -5.218775 2.987615 2.423 
545 775 -5.153976 2.597549 1.482 
555 775 -4.867044 2.336166 1.940 
565 775 -4.960809 2.227758 2.979 
575 775 -5.480778 2.524205 1.696 
585 775 -5.673171 3.195458 1.885 
595 775 -5.670829 3.205173 1.259 
605 775 -4.522315 3.181411 1.227 
615 775 -3.418638 2.677237 1.044 
625 775 -3.082671 2.342838 3.934 
635 775 -3.263194 2.541688 3.643 
645 775 -3.493096 2.750321 2.725 
655 775 -4.061941 2.859562 2.936 
665 775 -3.982645 3.115243 4.003 
675 775 -3.798310 3.072947 2.799 
685 775 -3.489277 2.709870 1.373 
695 775 -3.522927 2.685698 1.153 
705 775 -4.325751 3.641349 2.566 
715 775 -4.995142 4.657028 2.049 
725 775 -5.603271 5.655897 1.198 
735 775 -5.509985 6.132504 1.555 
745 775 -5.418198 5.942487 1.550 
755 775 -4.747730 5.392483 2.748 
765 775 -4.707486 4.385015 1.629 
775 775 -4.814748 3.851204 1.624 
785 775 -5.211855 3.569274 7.986 
795 775 -4.927580 3.762102 1.155 
805 775 -5.232168 4.360073 1.419 
815 775 -5.101186 4.651545 1.230 
825 775 -4.623353 3.871885 1.260 
835 775 -3.903321 -2.507130 2.387 
845 775 -3.806615 -3.117129 1.195 
855 775 -3.719865 -0.119544 1.034 
865 775 -3.633115 2.878041 1.006 
875 775 -4.365570 3.813960 4.179 
885 775 -4.557852 3.996595 1.588 
895 775 -4.212541 4.075847 2.326 
905 775 -4.056305 4.096897 1.581 
915 775 -4.184640 4.066592 1.914 
925 775 -3.768614 4.196375 1.728 
935 775 -2.963906 4.086772 2.595 
945 775 -2.320865 3.513890 1.123 
955 775 -2.372182 2.796521 1.456 
965 775 -2.437328 2.892362 1.028 
975 775 -2.415305 -0.371398 1.365 
985 775 -2.393282 -3.635159 1.494 
995 775 -2.477289 0.412272 1.008 
1005 775 -3.185113 2.617359 1.737 
1015 775 -3.146432 3.218356 2.068 
1025 775 -3.056544 3.317406 1.803 
1035 775 -3.363135 3.802519 2.594 
1045 775 -3.251114 3.877989 8.539 
1055 775 -2.394019 3.066450 2.039 
1065 775 -1.647090 2.622136 1.754 
1075 775 -1.714864 1.799631 1.084 
1085 775 -2.468229 3.185309 1.118 
1095 775 -3.346811 4.709336 1.381 
1105 775 -4.051061 7.250454 1.078 
1115 775 -2.171563 8.568099 1.040 
1125 775 -2.577157 6.678138 1.152 
1135 775 -3.875205 2.940273 2.202 
1145 775 -3.552359 -0.064864 1.834 
1155 775 -0.542098 -1.174020 1.008 
1165 775 -0.074725 -0.706043 1.095 
1175 775 4.677069 0.836828 1.067 
1185 775 1.048842 1.697669 1.050 
1195 775 -2.113249 10.511020 1.147 
1205 775 -1.957026 9.819775 1.331 
1215 775 -1.800803 9.128530 1.014 
1225 775 0.015265 3.977582 1.342 
1235 775 2.625260 -1.194057 1.322 
1245 775 2.702950 -2.282668 1.152 
1255 775 -2.266423 0.675167 1.254 
1265 775 -2.342976 4.222087 1.257 
1275 775 -1.619711 3.406248 1.368 
5 765 0.420645 2.525827 1.173 
15 765 -0.518556 2.676173 1.173 
25 765 -0.132589 1.711650 1.845 
35 765 1.820022 -1.010760 2.019 
45 765 2.235440 -1.628074 1.718 
55 765 1.062455 -0.719868 1.009 
65 765 -0.386174 -1.072894 1.306 
75 765 -1.771725 0.233524 1.149 
85 765 -3.996014 -1.802655 1.128 
95 765 -5.234080 -4.017212 1.141 
105 765 -5.988485 -1.178387 1.529 
115 765 -3.847252 -0.194429 1.232 
125 765 -1.150085 0.216461 1.181 
135 765 -0.497389 0.335440 1.547 
145 765 -1.887186 0.169930 1.104 
155 765 -2.855992 0.215921 1.449 
165 765 -3.502514 -1.054050 1.349 
175 765 -5.159054 0.449648 1.081 
185 765 -5.659918 0.562746 1.004 
195 765 -5.856597 1.742766 1.224 
205 765 -5.321329 1.247837 1.745 
215 765 -5.429587 0.832886 1.548 
225 765 -5.145807 1.007376 2.392 
235 765 -5.546724 1.352127 1.727 
245 765 -5.852227 1.663376 5.059 
255 765 -5.695337 1.804484 2.797 
265 765 -5.319982 2.166914 1.692 
275 765 -4.860885 2.282673 2.105 
285 765 -4.245435 2.187120 1.127 
295 765 -4.545010 1.590792 1.129 
305 765 -5.112058 1.726027 1.015 
315 765 -5.679106 1.861262 20.000 
325 765 -5.558197 1.289981 1.776 
335 765 -5.644997 1.495996 1.860 
345 765 -5.645533 2.042226 2.177 
355 765 -5.807394 2.176656 2.406 
365 765 -5.964605 2.067707 2.534 
375 765 -6.252096 2.229471 2.213 
385 765 -6.654445 2.349335 2.541 
395 765 -6.988592 2.504779 1.297 
405 765 -7.071009 2.601211 1.312 
415 765 -6.604816 2.755768 1.490 
425 765 -6.234000 2.859935 1.407 
435 765 -6.368392 3.142891 1.917 
445 765 -6.342490 2.687107 1.031 
455 765 -6.062144 2.083172 1.425 
465 765 -5.860398 1.941081 1.528 
475 765 -5.563008 2.230648 20.000 
485 765 -5.412930 2.595644 20.000 
495 765 -5.438326 3.014805 41.362 
505 765 -5.230748 3.386746 10.043 
515 765 -4.999146 3.662443 2.356 
525 765 -5.059225 3.430837 2.425 
535 765 -5.106905 2.882907 2.327 
545 765 -5.273375 2.357192 2.530 
555 765 -5.190552 2.093186 1.454 
565 765 -5.136877 1.661105 2.488 
575 765 -5.131529 1.649051 1.509 
585 765 -4.897497 1.904881 1.700 
595 765 -4.807322 2.748393 1.225 
605 765 -4.053928 2.840415 1.204 
615 765 -3.368780 2.669221 1.140 
625 765 -3.163228 2.186393 4.234 
635 765 -3.345124 2.337973 2.851 
645 765 -3.797743 2.607974 1.040 
655 765 -4.317763 2.870599 4.074 
665 765 -4.448317 3.165070 1.884 
675 765 -4.187028 3.221014 1.623 
685 765 -3.553313 3.121552 2.916 
695 765 -3.229848 3.333828 1.073 
705 765 -3.564381 4.408170 1.306 
715 765 -4.415309 5.121011 1.156 
725 765 -5.257011 5.612053 1.190 
735 765 -5.224342 5.793764 1.253 
745 765 -5.935132 5.610820 1.265 
755 765 -5.569980 5.493374 1.693 
765 765 -5.663560 4.592897 1.909 
775 765 -5.700091 3.788341 2.380 
785 765 -5.203928 3.267332 1.088 
795 765 -4.642618 3.225989 1.440 
805 765 -4.868469 3.834302 2.823 
815 765 -5.055445 4.119927 2.580 
825 765 -5.643538 3.691350 2.291 
835 765 -5.807442 2.913521 2.096 
845 765 -5.365047 2.334614 1.803 
855 765 -4.786030 2.595423 1.344 
865 765 -4.459961 3.231016 1.545 
875 765 -4.434440 3.444703 2.082 
885 765 -4.228770 3.734419 3.712 
895 765 -3.957863 4.113298 1.942 
905 765 -3.884356 4.194491 1.271 
915 765 -3.921494 4.273016 1.878 
925 765 -3.210554 4.394331 1.969 
935 765 -2.503279 4.341244 2.630 
945 765 -2.224351 3.989759 3.358 
955 765 -2.334997 3.066300 1.124 
965 765 -2.420501 3.193979 1.962 
975 765 -2.664545 3.119429 1.439 
985 765 -2.908590 3.044878 1.144 
995 765 -2.594501 2.593475 1.858 
1005 765 -2.055699 2.811521 4.490 
1015 765 -2.474826 3.461837 4.899 
1025 765 -2.514383 3.655928 1.014 
1035 765 -2.898347 4.124033 1.189 
1045 765 -3.073181 4.110353 1.965 
1055 765 -2.545527 2.996524 1.002 
1065 765 -2.083044 2.282097 1.183 
1075 765 -2.303603 1.876054 1.439 
1085 765 -2.992219 2.524854 1.053 
1095 765 -3.632143 2.754771 1.638 
1105 765 -3.997870 3.088571 1.249 
1115 765 -3.012196 6.408844 1.045 
1125 765 -4.040026 5.115102 1.226 
1135 765 -4.782969 2.917902 1.811 
1145 765 -4.741772 1.576435 2.330 
1155 765 -2.173911 -1.462646 1.064 
1165 765 0.166679 -0.334833 1.422 
1175 765 1.277324 -0.162636 1.323 
1185 765 -1.774280 1.483023 1.156 
1195 765 -2.065757 6.207591 1.354 
1205 765 -2.333627 8.346326 1.217 
1215 765 -0.983048 4.924416 1.688 
1225 765 0.896015 0.771699 1.135 
1235 765 1.373381 -6.654441 1.048 
1245 765 1.508691 -11.650941 1.034 
1255 765 1.328480 -6.575509 1.257 
1265 765 0.911797 -0.976273 1.060 
1275 765 0.691171 -0.350044 1.145 
5 755 2.855679 2.651849 1.252 
15 755 1.932386 2.669276 1.252 
25 755 3.588117 1.236878 1.219 
35 755 4.207656 -0.051693 1.168 
45 755 3.153107 -0.792826 1.055 
55 755 0.852682 -0.555314 1.064 
65 755 0.138911 0.378076 1.263 
75 755 -1.303065 1.035572 1.111 
85 755 -1.146930 0.356542 1.202 
95 755 -0.873910 -0.816443 1.394 
105 755 -2.600776 -0.503083 1.001 
115 755 -0.661230 0.616112 1.283 
125 755 -0.342253 1.088873 1.169 
135 755 -1.664082 1.194516 1.028 
145 755 -3.984691 -0.103926 1.717 
155 755 -5.422401 -0.318457 1.361 
165 755 -6.003909 0.190254 1.094 
175 755 -6.747167 1.194538 1.387 
185 755 -6.182871 0.756869 1.032 
195 755 -5.925219 1.021298 1.096 
205 755 -5.626359 0.491224 1.289 
215 755 -5.622029 0.696852 1.684 
225 755 -5.796759 0.851903 1.581 
235 755 -6.003374 1.237452 1.942 
245 755 -5.857770 1.732652 1.476 
255 755 -5.885592 1.844372 1.461 
265 755 -5.380214 1.943666 3.373 
275 755 -4.571965 2.085181 1.337 
285 755 -4.317802 1.759174 1.012 
295 755 -4.668529 1.330982 1.286 
305 755 -5.349822 1.412978 2.640 
315 755 -5.846193 1.486927 2.276 
325 755 -5.959323 1.263488 3.645 
335 755 -6.082612 1.552654 2.735 
345 755 -5.809278 1.911158 2.911 
355 755 -5.613323 1.914015 1.813 
365 755 -5.805864 1.663589 1.785 
375 755 -6.078124 2.025602 3.925 
385 755 -6.512354 2.213520 3.314 
395 755 -7.074546 2.472144 1.508 
405 755 -6.892246 2.663499 1.084 
415 755 -6.359891 3.259142 1.048 
425 755 -6.082631 3.042961 1.103 
435 755 -6.396242 3.052728 1.449 
445 755 -6.278482 2.159871 1.279 
455 755 -6.122856 1.721915 1.135 
465 755 -5.875438 1.584544 1.343 
475 755 -5.621873 2.251427 2.074 
485 755 -5.527692 2.709173 5.035 
495 755 -5.498682 3.069219 8.555 
505 755 -5.001093 3.645620 1.161 
515 755 -4.927311 3.508489 2.245 
525 755 -5.092512 3.216880 1.230 
535 755 -5.552541 2.396955 1.217 
545 755 -5.225903 2.194396 2.020 
555 755 -5.349007 2.055270 2.495 
565 755 -5.414883 1.545950 3.695 
575 755 -5.025808 1.650209 2.652 
585 755 -4.689605 1.842487 2.218 
595 755 -4.488682 2.482895 1.344 
605 755 -3.986982 2.476335 1.761 
615 755 -3.372833 2.127018 2.549 
625 755 -3.400842 2.164360 2.989 
635 755 -3.476960 2.260277 1.815 
645 755 -3.914706 2.482455 1.147 
655 755 -4.385048 2.800148 2.424 
665 755 -4.373731 3.291569 1.053 
675 755 -4.079036 3.351816 1.032 
685 755 -3.499856 3.255328 2.956 
695 755 -3.278204 3.342592 1.509 
705 755 -3.409040 4.166324 1.073 
715 755 -3.862380 5.330896 2.044 
725 755 -4.719464 5.334321 2.546 
735 755 -5.401442 5.526516 2.222 
745 755 -5.812946 5.770459 3.988 
755 755 -5.958872 6.167805 1.932 
765 755 -6.085471 5.130326 2.570 
775 755 -6.149045 3.926400 2.896 
785 755 -5.616502 3.228999 1.630 
795 755 -4.855704 3.063714 5.808 
805 755 -4.721237 3.377764 2.486 
815 755 -5.009704 3.588310 3.123 
825 755 -5.584878 4.220289 2.324 
835 755 -5.985429 4.000310 1.542 
845 755 -5.791273 3.284153 1.583 
855 755 -5.078403 2.522092 1.256 
865 755 -4.759738 2.748073 1.541 
875 755 -4.535945 3.311251 1.203 
885 755 -4.227419 3.357631 1.886 
895 755 -3.790852 4.124163 1.246 
905 755 -3.612245 4.139439 1.257 
915 755 -3.437059 4.175506 1.659 
925 755 -2.884396 4.195783 2.622 
935 755 -2.262550 4.269024 8.684 
945 755 -2.209700 4.102477 2.591 
955 755 -2.538561 3.543626 1.017 
965 755 -2.403674 3.495597 1.020 
975 755 -2.839500 3.554743 1.213 
985 755 -3.275325 3.613890 20.000 
995 755 -3.205582 3.476209 20.000 
1005 755 -2.240673 3.372306 5.989 
1015 755 -2.144262 3.437574 1.356 
1025 755 -2.228275 3.951398 1.087 
1035 755 -3.054419 4.247071 1.535 
1045 755 -3.315613 3.894443 2.550 
1055 755 -2.617534 2.825050 1.705 
1065 755 -2.635878 2.239432 1.400 
1075 755 -2.892342 1.952478 1.661 
1085 755 -3.939242 2.527772 1.411 
1095 755 -4.630892 2.969005 1.395 
1105 755 -4.643964 3.513732 1.851 
1115 755 -5.104191 3.594149 1.849 
1125 755 -5.502895 3.552066 1.774 
1135 755 -5.821622 3.031256 2.448 
1145 755 -5.735471 1.110970 1.643 
1155 755 -3.870531 -2.396509 1.234 
1165 755 -2.044579 -0.543620 1.006 
1175 755 -1.523813 -0.988214 1.107 
1185 755 -2.166200 0.255142 1.007 
1195 755 -1.865042 3.198158 1.007 
1205 755 -1.661331 3.522880 1.133 
1215 755 -0.678111 0.346712 1.219 
1225 755 0.695370 -3.344696 1.683 
1235 755 0.323499 -7.514375 1.210 
1245 755 1.792010 -12.610657 1.829 
1255 755 1.448400 -9.642915 1.071 
1265 755 5.029368 -6.675195 1.246 
1275 755 5.561066 -4.555837 1.244 
5 745 5.290713 2.777872 1.102 
15 745 5.048957 2.539044 1.102 
25 745 5.337641 2.167997 1.287 
35 745 5.962056 2.133611 1.304 
45 745 4.070773 0.042422 1.047 
55 745 1.047649 -1.829436 1.014 
65 745 -0.480535 1.331743 1.114 
75 745 -0.834405 1.837620 1.046 
85 745 -0.639059 0.218674 1.112 
95 745 -0.198554 -0.609498 1.579 
105 745 -0.271779 0.020246 1.579 
115 745 -0.263455 0.478080 1.137 
125 745 -1.286018 1.514999 1.118 
135 745 -4.139592 2.136400 1.044 
145 745 -6.407433 2.080672 1.041 
155 745 -7.717434 2.126514 1.080 
165 745 -8.162666 2.210750 1.261 
175 745 -7.118033 1.857753 1.585 
185 745 -6.527484 0.942220 1.597 
195 745 -6.031568 0.628167 1.856 
205 745 -5.794927 0.991191 1.060 
215 745 -5.790092 1.189077 1.104 
225 745 -5.989367 1.286860 1.347 
235 745 -6.006917 1.546964 1.496 
245 745 -5.902402 1.699258 2.737 
255 745 -5.822562 1.676837 3.572 
265 745 -5.238707 1.567733 3.276 
275 745 -4.415821 1.611384 1.057 
285 745 -4.275386 1.550246 2.396 
295 745 -4.675567 1.251980 1.522 
305 745 -5.416951 1.092351 4.510 
315 745 -5.964222 1.356659 3.631 
325 745 -5.880573 1.566394 2.987 
335 745 -5.915731 1.531700 1.876 
345 745 -5.863570 1.655609 1.779 
355 745 -5.443270 1.533346 1.318 
365 745 -5.496644 1.547897 1.946 
375 745 -5.827471 1.682938 1.551 
385 745 -6.326668 1.925260 1.424 
395 745 -6.814984 2.203313 1.243 
405 745 -7.082410 2.650947 1.556 
415 745 -6.675546 2.960733 1.301 
425 745 -5.931263 3.225987 1.104 
435 745 -6.424092 2.962566 1.199 
445 745 -6.367332 2.261992 1.230 
455 745 -6.375339 1.780269 1.253 
465 745 -6.159978 1.769499 1.154 
475 745 -5.665764 2.447140 2.516 
485 745 -5.419726 2.853365 2.280 
495 745 -5.489705 3.226312 1.876 
505 745 -5.281237 3.682415 1.506 
515 745 -5.118281 3.232489 1.116 
525 745 -5.685730 2.775602 2.035 
535 745 -6.065772 1.890170 1.668 
545 745 -4.986661 2.157576 1.114 
555 745 -4.764187 2.067000 2.102 
565 745 -5.133454 1.677428 2.006 
575 745 -4.920087 1.651367 1.544 
585 745 -4.626110 1.936872 1.188 
595 745 -4.119146 2.396837 1.311 
605 745 -3.407425 2.435687 3.137 
615 745 -3.637342 1.864339 1.970 
625 745 -3.683606 1.994986 2.452 
635 745 -3.518100 2.340116 2.195 
645 745 -3.853019 2.518277 1.298 
655 745 -4.142519 2.732869 1.416 
665 745 -4.040602 3.253272 2.529 
675 745 -3.664424 3.170620 1.192 
685 745 -3.551028 2.925038 2.512 
695 745 -3.422491 3.039704 4.203 
705 745 -3.338986 3.571949 2.102 
715 745 -3.192141 4.816712 1.079 
725 745 -3.777883 5.277235 1.057 
735 745 -4.670882 5.462929 1.807 
745 745 -5.690760 5.930099 4.804 
755 745 -6.230897 5.689487 2.121 
765 745 -6.438755 5.236218 1.597 
775 745 -6.597999 4.064459 3.003 
785 745 -5.663025 2.870745 1.756 
795 745 -4.582047 3.056834 19.630 
805 745 -4.435442 3.515728 20.000 
815 745 -4.789566 3.919082 2.796 
825 745 -5.372844 4.100918 4.109 
835 745 -5.603336 4.014362 2.337 
845 745 -5.397686 3.647055 2.226 
855 745 -5.033709 2.896496 1.422 
865 745 -4.543932 3.107073 2.314 
875 745 -4.637451 3.177798 2.714 
885 745 -4.485203 3.859500 20.000 
895 745 -4.249498 3.921361 12.296 
905 745 -3.978639 3.494413 1.235 
915 745 -3.619491 3.151474 3.484 
925 745 -3.003689 3.497471 2.032 
935 745 -2.284233 3.762123 2.155 
945 745 -2.357145 3.827745 1.573 
955 745 -2.842224 3.772334 1.261 
965 745 -3.215579 3.406780 1.445 
975 745 -3.168710 3.447827 1.221 
985 745 -3.414056 3.022929 13.567 
995 745 -3.350744 2.873037 79.806 
1005 745 -2.546424 3.026464 7.868 
1015 745 -2.248496 3.418447 1.829 
1025 745 -2.281995 4.007995 4.230 
1035 745 -2.978095 4.059504 2.000 
1045 745 -3.558045 3.678534 3.982 
1055 745 -2.976225 2.785816 1.017 
1065 745 -3.202090 2.248519 1.370 
1075 745 -3.767577 2.302959 1.733 
1085 745 -4.521277 2.363390 1.043 
1095 745 -4.763588 3.094852 1.533 
1105 745 -4.878416 3.629897 1.328 
1115 745 -5.042550 3.500623 1.102 
1125 745 -4.895380 3.331775 1.527 
1135 745 -5.252058 2.458054 4.135 
1145 745 -5.635695 0.818029 1.303 
1155 745 -3.995045 -0.592289 1.072 
1165 745 -2.069151 -1.376444 2.189 
1175 745 -1.424228 -1.186827 1.498 
1185 745 0.878807 0.830510 1.091 
1195 745 2.917308 1.559213 1.175 
1205 745 -1.189988 1.392499 1.041 
1215 745 -1.890290 -1.218357 1.080 
1225 745 0.545911 -5.603298 1.018 
1235 745 1.703158 -10.208671 1.133 
1245 745 2.075330 -13.570374 2.176 
1255 745 3.262089 -13.330636 1.141 
1265 745 8.683554 -10.741112 1.129 
1275 745 5.670239 -8.903124 1.057 
5 735 -0.127489 2.399893 1.167 
15 735 2.582863 2.298285 1.167 
25 735 6.308586 3.248832 1.227 
35 735 5.671790 2.720450 1.236 
45 735 5.034993 2.192068 1.245 
55 735 1.677667 -3.398641 1.343 
65 735 -0.437214 -1.588058 1.618 
75 735 -0.283801 1.199362 1.063 
85 735 0.226808 1.482728 1.387 
95 735 0.724671 0.736817 1.270 
105 735 0.322137 0.167954 1.338 
115 735 0.134321 0.340047 1.106 
125 735 -3.392282 0.946352 1.452 
135 735 -7.124449 2.529336 1.051 
145 735 -7.083527 2.116780 2.344 
155 735 -7.718067 1.933423 1.179 
165 735 -7.533060 2.136314 1.226 
175 735 -7.488898 2.520968 2.184 
185 735 -6.586552 1.415953 3.707 
195 735 -6.107326 0.960184 3.497 
205 735 -5.791330 0.893741 2.581 
215 735 -5.763457 1.043511 1.371 
225 735 -6.468593 1.172257 1.194 
235 735 -5.931267 1.450326 1.056 
245 735 -5.829884 1.614193 2.276 
255 735 -5.717888 1.432689 3.547 
265 735 -5.232373 1.133475 5.733 
275 735 -4.366363 0.919427 3.279 
285 735 -3.835871 0.094422 1.681 
295 735 -3.839397 -0.860164 1.132 
305 735 -4.600516 -0.610834 3.358 
315 735 -5.552686 0.950141 2.623 
325 735 -5.605765 1.450697 7.265 
335 735 -5.673696 1.500480 3.977 
345 735 -5.558631 1.552141 2.524 
355 735 -5.041363 1.484315 1.155 
365 735 -4.890039 1.336989 1.019 
375 735 -5.427270 1.456876 2.432 
385 735 -5.918077 1.740391 2.458 
395 735 -6.492095 2.102375 1.209 
405 735 -6.668601 2.446256 2.526 
415 735 -6.575361 2.486656 6.739 
425 735 -6.423632 2.680164 1.553 
435 735 -6.732963 2.267685 1.814 
445 735 -6.530667 2.271668 1.618 
455 735 -6.373110 2.132266 1.936 
465 735 -6.330201 1.934691 2.068 
475 735 -5.834642 2.309216 2.148 
485 735 -5.480998 2.841722 2.809 
495 735 -5.221441 3.264228 1.256 
505 735 -5.163118 3.550779 1.059 
515 735 -5.300574 3.119369 3.618 
525 735 -6.258409 2.381501 2.192 
535 735 -5.997868 1.946712 1.678 
545 735 -4.933366 1.981172 1.455 
555 735 -4.729963 2.047149 1.006 
565 735 -4.739174 1.634264 1.530 
575 735 -5.065976 1.646865 3.017 
585 735 -4.662547 1.711442 3.031 
595 735 -3.860226 1.882113 2.457 
605 735 -3.442305 1.957211 2.594 
615 735 -3.458333 1.986814 1.057 
625 735 -3.699855 2.093217 1.351 
635 735 -3.511680 2.425900 3.585 
645 735 -3.689263 2.510756 1.912 
655 735 -3.880349 2.733322 2.978 
665 735 -3.575049 3.192880 1.211 
675 735 -3.323154 2.928731 1.217 
685 735 -3.424908 2.704494 6.877 
695 735 -3.311797 2.717455 13.340 
705 735 -3.213628 3.295802 6.553 
715 735 -3.100802 4.016658 1.930 
725 735 -2.987976 4.737514 2.327 
735 735 -3.919062 4.957200 2.749 
745 735 -5.393574 5.103756 2.146 
755 735 -5.832739 4.462782 1.513 
765 735 -6.060480 4.640629 2.417 
775 735 -6.125364 3.707713 1.504 
785 735 -5.081310 2.858776 1.396 
795 735 -4.598625 3.244637 3.673 
805 735 -4.562470 3.616325 20.000 
815 735 -4.803245 3.968831 1.915 
825 735 -5.369107 3.933724 5.700 
835 735 -5.159399 3.660723 3.606 
845 735 -4.791803 3.240578 2.635 
855 735 -4.983023 2.951767 1.895 
865 735 -4.960176 3.177514 4.370 
875 735 -4.853353 3.090489 3.919 
885 735 -4.573931 3.759160 7.832 
895 735 -4.003076 3.483802 1.526 
905 735 -4.132752 3.040461 1.536 
915 735 -3.918476 3.206452 3.128 
925 735 -3.220663 2.942222 2.781 
935 735 -2.424433 3.118466 2.321 
945 735 -2.362737 3.703120 1.468 
955 735 -2.780430 3.875437 1.566 
965 735 -3.243661 3.253526 1.090 
975 735 -3.431843 3.087496 1.021 
985 735 -3.552788 2.431967 2.094 
995 735 -3.340509 2.807988 2.159 
1005 735 -2.852176 2.680621 1.700 
1015 735 -2.756907 3.336394 3.722 
1025 735 -2.935667 3.854565 1.534 
1035 735 -3.286075 3.756318 1.317 
1045 735 -3.777362 3.490585 2.076 
1055 735 -4.823770 3.536467 1.512 