TITLE = "B00095"
VARIABLES = "x", "y", "u", "v", "sn"
ZONE T="Frame 0", I=128, J=80
5 795 0.000000 -0.000000 1.314 
15 795 2.630220 -1.258583 1.314 
25 795 1.679224 -3.076703 1.076 
35 795 2.115692 -1.155503 1.314 
45 795 2.552161 0.765696 1.378 
55 795 2.514346 6.428128 1.294 
65 795 1.818175 11.293936 1.102 
75 795 0.686979 13.932086 1.071 
85 795 0.148808 13.588974 1.807 
95 795 0.758494 10.330137 1.965 
105 795 1.912997 8.534931 1.024 
115 795 2.693308 8.742545 1.095 
125 795 3.473620 8.950160 1.010 
135 795 4.253931 9.157774 1.117 
145 795 5.034243 9.365388 1.100 
155 795 7.084154 10.784981 1.045 
165 795 9.778899 14.616398 1.025 
175 795 13.686004 19.046083 3.434 
185 795 17.316445 21.745574 20.000 
195 795 11.104289 23.006397 1.133 
205 795 4.892133 24.267220 1.021 
215 795 -1.320022 25.528043 1.604 
225 795 -2.696362 18.663380 1.314 
235 795 -5.718859 11.718167 1.015 
245 795 -8.647937 7.400340 1.113 
255 795 -11.577014 3.082512 1.027 
265 795 -1.793610 1.785001 1.397 
275 795 -1.609757 1.863005 1.199 
285 795 -1.425903 1.941009 1.206 
295 795 -1.242050 2.019013 1.545 
305 795 -1.933041 1.218419 1.603 
315 795 -1.774699 0.097183 1.151 
325 795 -1.759364 0.518025 1.096 
335 795 -1.744029 0.938868 1.235 
345 795 -1.728694 1.359710 1.208 
355 795 -2.368677 2.226018 1.294 
365 795 -2.109917 3.231569 1.797 
375 795 -1.630714 3.744100 1.091 
385 795 -1.586233 3.505061 2.575 
395 795 -1.135201 2.706925 1.309 
405 795 -1.048783 2.540450 1.956 
415 795 -0.962365 2.373975 1.991 
425 795 -1.399050 3.198541 2.064 
435 795 -1.613862 2.829418 2.269 
445 795 -1.827549 2.346199 1.726 
455 795 -1.785067 2.284714 2.404 
465 795 -1.236594 2.597992 2.417 
475 795 -1.253066 2.607093 1.780 
485 795 -1.269538 2.616194 2.510 
495 795 -1.422517 2.628454 4.197 
505 795 -1.231690 2.758554 3.307 
515 795 -1.011114 2.890858 2.677 
525 795 -1.157215 3.079639 2.419 
535 795 -1.476070 3.022168 1.987 
545 795 -1.611657 2.566631 1.412 
555 795 -1.896766 2.504992 1.615 
565 795 -2.175222 2.551322 2.641 
575 795 -2.454877 2.477578 4.110 
585 795 -2.374064 2.334347 7.685 
595 795 -1.769436 2.171971 3.200 
605 795 -1.079989 2.014625 1.587 
615 795 -0.769695 1.804587 1.254 
625 795 -0.810861 1.324417 3.588 
635 795 -1.254765 1.717898 2.244 
645 795 -1.483219 1.874105 1.338 
655 795 -1.463984 1.769937 1.717 
665 795 -1.200270 1.802462 1.725 
675 795 -0.936555 1.834988 1.046 
685 795 -0.672841 1.867513 2.589 
695 795 -0.409126 1.900038 1.530 
705 795 -0.145412 1.932564 1.272 
715 795 0.118302 1.965089 1.122 
725 795 0.382017 1.997614 1.874 
735 795 -0.700913 1.791531 3.150 
745 795 -0.876609 1.965510 2.442 
755 795 -0.599121 1.662300 1.975 
765 795 -0.790726 1.726009 2.257 
775 795 -1.746710 2.153970 1.707 
785 795 -3.229903 2.442339 1.419 
795 795 -2.856306 2.431269 2.051 
805 795 -1.768353 2.195856 10.301 
815 795 -1.603286 2.329121 10.841 
825 795 -1.438219 2.462386 3.562 
835 795 -1.273151 2.595650 2.599 
845 795 -1.262988 3.169013 1.694 
855 795 -1.604964 2.995923 2.453 
865 795 -2.016640 2.520532 4.583 
875 795 -2.667170 1.865177 2.344 
885 795 -3.174539 0.956614 2.009 
895 795 -2.903137 0.247893 2.002 
905 795 -2.183278 0.432462 1.852 
915 795 -1.081600 0.915377 1.982 
925 795 1.577040 1.747762 1.177 
935 795 1.134343 0.982026 1.056 
945 795 0.691645 0.216290 1.371 
955 795 0.401426 0.189404 1.991 
965 795 -1.400096 0.302368 2.162 
975 795 -1.978535 0.703248 3.324 
985 795 -2.273194 1.373749 3.445 
995 795 -2.280780 1.800619 3.443 
1005 795 -2.288366 2.227490 9.211 
1015 795 -1.039982 3.127706 2.133 
1025 795 -0.841693 3.422341 1.365 
1035 795 0.811633 3.837882 1.441 
1045 795 2.464959 4.253423 1.002 
1055 795 4.118285 4.668964 1.098 
1065 795 -1.753532 4.896975 1.344 
1075 795 -1.898354 4.690452 1.018 
1085 795 -2.043176 4.483930 1.149 
1095 795 -3.565656 3.272522 1.447 
1105 795 -5.215693 1.826735 1.403 
1115 795 -5.879169 0.750366 1.489 
1125 795 -5.285887 -0.635844 1.293 
1135 795 -3.561278 -5.765910 1.139 
1145 795 -1.854582 -3.897458 1.123 
1155 795 1.310724 -0.399995 1.329 
1165 795 1.759323 -1.782235 1.198 
1175 795 -5.600754 -5.223177 1.596 
1185 795 -4.952309 -2.998684 1.261 
1195 795 -4.303864 -0.774191 1.424 
1205 795 -1.999774 0.277356 1.381 
1215 795 0.304316 1.328904 1.255 
1225 795 2.608407 2.380451 1.540 
1235 795 1.874077 -0.675949 1.019 
1245 795 1.139748 -3.732350 1.032 
1255 795 0.405418 -6.788750 1.076 
1265 795 4.962404 5.775198 1.120 
1275 795 0.000000 -0.000000 1.054 
5 785 3.333682 -1.452913 1.314 
15 785 3.650073 -3.020695 1.314 
25 785 2.282709 -4.122653 1.076 
35 785 2.545353 -1.551034 1.314 
45 785 2.807997 1.020585 1.378 
55 785 2.383069 7.187833 1.294 
65 785 1.713322 11.797908 1.102 
75 785 0.263679 14.676056 1.071 
85 785 -0.405218 14.388590 1.807 
95 785 0.111212 11.330032 1.965 
105 785 0.958255 10.570257 1.024 
115 785 0.468748 5.147361 1.095 
125 785 0.370680 4.008099 1.010 
135 785 0.272612 2.868838 1.117 
145 785 3.350466 4.292503 1.100 
155 785 4.138658 6.138908 1.045 
165 785 6.909607 10.851420 1.025 
175 785 12.409303 15.902073 3.434 
185 785 15.538493 19.384820 20.000 
195 785 16.374114 20.520457 1.133 
205 785 8.758625 21.045794 1.021 
215 785 0.348558 20.981261 1.604 
225 785 -0.335239 11.285616 1.314 
235 785 -2.477593 7.457895 1.015 
245 785 -5.831425 3.175592 1.113 
255 785 -7.537554 2.798608 1.027 
265 785 -2.246594 1.939043 1.397 
275 785 -1.529360 1.714707 1.199 
285 785 -1.212534 1.920726 1.206 
295 785 -1.292614 2.053081 1.545 
305 785 -1.996720 1.344231 1.603 
315 785 -1.872693 0.472399 1.151 
325 785 -1.489561 0.512013 1.096 
335 785 -1.589096 1.048280 1.235 
345 785 -2.104741 1.537400 1.208 
355 785 -2.162869 2.339124 1.294 
365 785 -2.220996 3.140848 1.797 
375 785 -1.783636 3.650859 1.091 
385 785 -1.691560 3.292715 2.575 
395 785 -1.348452 2.488235 1.309 
405 785 -1.039921 1.843769 1.956 
415 785 -1.112170 2.058728 1.991 
425 785 -1.413938 2.884969 2.064 
435 785 -1.640401 2.758371 2.269 
445 785 -1.850601 2.399117 1.726 
455 785 -1.701644 2.275571 2.404 
465 785 -1.167197 2.580360 2.417 
475 785 -0.964427 2.722879 1.780 
485 785 -1.238031 2.652427 2.510 
495 785 -1.383513 2.610174 4.197 
505 785 -1.276737 2.670465 3.307 
515 785 -1.044239 2.786155 2.677 
525 785 -1.110815 2.975599 2.419 
535 785 -1.355998 2.926627 1.987 
545 785 -1.470649 2.464411 1.412 
555 785 -1.744139 2.412810 1.615 
565 785 -1.930491 2.438391 2.641 
575 785 -2.169823 2.356362 4.110 
585 785 -2.117657 2.218640 7.685 
595 785 -1.607374 2.025572 3.200 
605 785 -0.954879 1.886509 1.587 
615 785 -0.711594 1.705210 1.254 
625 785 -0.777056 1.224412 3.588 
635 785 -1.218782 1.545349 2.244 
645 785 -1.433956 1.632257 1.338 
655 785 -1.580908 1.798709 1.717 
665 785 -1.225487 1.245517 1.725 
675 785 -0.039673 0.157850 1.046 
685 785 5.199830 0.115286 2.589 
695 785 6.537641 0.471013 1.530 
705 785 -4.295351 2.085790 1.272 
715 785 -2.740414 2.243360 1.122 
725 785 -1.185476 2.400929 1.874 
735 785 -1.343809 1.989219 3.150 
745 785 -0.952735 1.963727 2.442 
755 785 -0.761238 1.636176 1.975 
765 785 -0.902843 1.682652 2.257 
775 785 -1.909068 2.104241 1.707 
785 785 -3.210187 2.261291 1.419 
795 785 -3.145399 2.389234 2.051 
805 785 -2.266406 2.167751 10.301 
815 785 -1.552075 2.457330 10.841 
825 785 -1.533065 2.627609 3.562 
835 785 -1.944856 2.724647 2.599 
845 785 -1.972879 3.250496 1.694 
855 785 -2.260765 3.065715 2.453 
865 785 -2.585910 2.631308 4.583 
875 785 -3.116188 2.013724 2.344 
885 785 -3.530751 1.092259 2.009 
895 785 -3.232049 0.319661 2.002 
905 785 -2.651255 0.444060 1.852 
915 785 -1.548346 0.876638 1.982 
925 785 0.168950 1.317986 1.177 
935 785 1.168882 1.487118 1.056 
945 785 -0.086978 0.137723 1.371 
955 785 -0.637970 0.023338 1.991 
965 785 -1.696504 0.248284 2.162 
975 785 -2.202310 0.622825 3.324 
985 785 -2.316278 1.246079 3.445 
995 785 -2.660855 1.618757 3.443 
1005 785 -2.363489 2.101838 9.211 
1015 785 -1.114822 2.739186 2.133 
1025 785 -0.731355 2.734218 1.365 
1035 785 0.312626 2.081498 1.441 
1045 785 1.356607 1.428778 1.002 
1055 785 0.797758 3.779743 1.098 
1065 785 -1.741493 4.566662 1.344 
1075 785 -2.195065 4.416025 1.018 
1085 785 -2.655375 3.940279 1.149 
1095 785 -4.091154 2.510663 1.447 
1105 785 -5.634002 0.977056 1.403 
1115 785 -6.244972 0.077218 1.489 
1125 785 -5.699520 -0.924992 1.293 
1135 785 -4.159072 -4.972082 1.139 
1145 785 -2.598042 -3.124445 1.123 
1155 785 0.081032 -0.364864 1.329 
1165 785 0.653633 -2.170048 1.198 
1175 785 -5.655824 -4.306581 1.596 
1185 785 -5.873690 -3.904917 1.261 
1195 785 -6.091556 -3.503254 1.424 
1205 785 -1.487426 -0.085427 1.381 
1215 785 -0.169068 -0.920269 1.255 
1225 785 -3.619335 -3.094601 1.540 
1235 785 -5.782312 -4.188909 1.019 
1245 785 -7.945288 -5.283218 1.032 
1255 785 -3.716603 -6.769751 1.076 
1265 785 2.023065 5.563745 1.120 
1275 785 2.460113 7.995239 1.054 
5 775 2.140618 -3.297975 1.154 
15 775 2.555240 -4.635768 1.154 
25 775 2.857290 -5.006052 1.277 
35 775 3.089588 -3.583724 1.033 
45 775 2.704261 1.542956 1.513 
55 775 2.665400 9.197148 1.216 
65 775 0.594012 12.402793 1.877 
75 775 -0.951903 15.398655 1.029 
85 775 -1.184390 15.936971 1.022 
95 775 -1.037069 15.535839 1.429 
105 775 0.003513 12.605582 1.859 
115 775 0.128161 6.822621 1.618 
125 775 -0.975500 1.759790 1.047 
135 775 -0.203974 -2.021661 1.162 
145 775 0.936443 0.087961 1.370 
155 775 0.850400 2.991376 5.184 
165 775 0.764357 5.894791 4.849 
175 775 8.600925 13.017418 2.610 
185 775 13.760542 17.024067 55.010 
195 775 12.671275 16.359269 2.820 
205 775 7.018409 14.828604 1.081 
215 775 1.266102 12.638857 1.173 
225 775 -0.057065 4.256306 1.675 
235 775 -1.209242 1.549806 1.871 
245 775 -2.808864 1.467434 4.010 
255 775 -3.498094 2.514704 2.303 
265 775 -2.390343 2.228744 1.811 
275 775 -1.684142 2.372594 1.368 
285 775 -1.315531 2.071568 1.115 
295 775 -1.324970 1.807053 1.912 
305 775 -1.807081 1.250753 2.696 
315 775 -1.970687 0.847616 2.611 
325 775 -1.857110 1.315707 3.517 
335 775 -1.928337 1.464771 2.302 
345 775 -2.358913 1.530333 2.347 
355 775 -2.251176 2.280694 1.280 
365 775 -2.143439 3.031055 4.516 
375 775 -1.899732 3.711309 1.140 
385 775 -1.869067 3.625168 2.560 
395 775 -1.904767 2.499315 1.382 
405 775 -1.887958 1.431314 4.894 
415 775 -1.603089 1.796314 4.927 
425 775 -1.233395 2.637751 2.877 
435 775 -1.374481 2.731007 3.399 
445 775 -1.660566 2.343772 1.931 
455 775 -1.430373 2.482688 1.244 
465 775 -1.062681 2.516185 1.668 
475 775 -0.970113 2.522819 2.300 
485 775 -1.102914 2.616854 2.345 
495 775 -1.074582 2.567354 2.305 
505 775 -1.280613 2.649701 1.601 
515 775 -1.080038 2.663611 3.103 
525 775 -1.191712 2.725431 3.504 
535 775 -1.252024 2.591024 2.686 
545 775 -1.306599 2.228111 1.346 
555 775 -1.499111 2.095433 2.617 
565 775 -1.502504 2.086360 1.769 
575 775 -1.680411 2.078046 2.704 
585 775 -1.730520 1.967195 7.908 
595 775 -1.396790 1.730182 2.655 
605 775 -0.932410 1.938223 2.946 
615 775 -0.735520 1.776417 1.715 
625 775 -0.892351 1.145607 2.152 
635 775 -1.206574 0.763888 2.801 
645 775 -1.183877 1.038520 1.021 
655 775 -1.149252 1.540503 1.634 
665 775 -1.739149 1.604262 2.778 
675 775 -2.262791 1.669167 1.040 
685 775 -1.706219 1.414207 1.315 
695 775 -0.731240 1.690270 1.613 
705 775 -0.392742 2.440253 1.439 
715 775 -1.719745 2.670969 1.069 
725 775 -1.516374 2.202557 1.487 
735 775 -1.271304 2.035423 1.302 
745 775 -1.051331 1.731418 1.984 
755 775 -0.864322 1.510407 2.504 
765 775 -1.231055 1.756907 2.533 
775 775 -2.336129 1.945403 3.010 
785 775 -3.378842 2.072730 1.748 
795 775 -3.392769 1.835576 2.936 
805 775 -3.311482 2.015261 3.616 
815 775 -2.597085 2.426892 3.207 
825 775 -2.637223 2.745971 4.842 
835 775 -2.966181 2.920667 1.525 
845 775 -3.158849 3.056283 1.600 
855 775 -3.089667 2.868458 1.452 
865 775 -3.496298 2.486302 2.574 
875 775 -3.930090 2.475301 2.545 
885 775 -3.745270 1.353381 1.046 
895 775 -3.435485 0.492850 1.660 
905 775 -3.358553 0.439802 1.741 
915 775 -2.843010 0.417000 1.988 
925 775 -1.239139 0.888210 1.200 
935 775 -0.968703 0.916651 1.265 
945 775 -1.354941 0.097350 2.762 
955 775 -1.963173 -0.146944 3.341 
965 775 -2.218607 0.229921 3.664 
975 775 -2.347460 0.663395 2.269 
985 775 -2.435694 1.343332 1.293 
995 775 -2.732649 1.535044 2.241 
1005 775 -2.527212 1.721687 3.966 
1015 775 -1.750858 2.304738 2.902 
1025 775 -1.523588 2.239980 3.191 
1035 775 -2.058310 1.807501 1.503 
1045 775 -2.585412 1.962250 2.129 
1055 775 -2.522769 2.890521 1.891 
1065 775 -2.744734 3.724780 1.874 
1075 775 -3.460143 3.793838 1.522 
1085 775 -3.868680 3.161496 2.134 
1095 775 -4.429793 1.094751 3.240 
1105 775 -5.778378 -0.171669 2.153 
1115 775 -6.624748 -0.811469 1.303 
1125 775 -6.615748 -1.240405 1.116 
1135 775 -6.145803 -3.515342 1.002 
1145 775 -4.465772 -2.522261 1.314 
1155 775 -1.735159 -0.893831 1.095 
1165 775 -0.714382 -1.189374 1.235 
1175 775 -6.217487 -4.875138 1.255 
1185 775 -7.048368 -5.553727 1.391 
1195 775 -7.879248 -6.232316 1.334 
1205 775 -5.091803 -5.415270 1.187 
1215 775 -5.264454 -7.024316 1.382 
1225 775 -8.530191 -10.148456 1.007 
1235 775 -9.158789 -10.470791 1.212 
1245 775 -8.550487 -9.990142 1.152 
1255 775 -7.838624 -6.750752 1.101 
1265 775 -7.509908 -3.756275 1.001 
1275 775 -7.706509 -1.722168 1.023 
5 765 0.947554 -5.143036 1.274 
15 765 0.260540 -5.651991 1.274 
25 765 1.536096 -4.022119 1.092 
35 765 2.601911 -3.182719 1.069 
45 765 2.600525 2.065328 1.149 
55 765 1.523593 7.786329 1.179 
65 765 0.166862 10.995431 1.275 
75 765 -0.919089 14.238211 2.315 
85 765 -1.276424 14.173244 1.108 
95 765 -1.190575 13.338736 1.432 
105 765 -1.166198 12.070853 1.681 
115 765 -0.509103 3.374691 1.410 
125 765 -0.539183 -2.566071 1.009 
135 765 -1.067976 -5.879249 1.138 
145 765 -2.064343 -4.565338 1.325 
155 765 -1.966906 -0.738794 2.743 
165 765 -1.869469 3.087749 20.000 
175 765 3.223300 9.325516 2.389 
185 765 7.622331 11.831999 5.131 
195 765 7.113306 11.022792 4.248 
205 765 3.689016 6.538418 1.053 
215 765 -0.534647 3.114369 4.158 
225 765 -2.036962 0.920984 2.302 
235 765 -1.809275 0.998973 4.012 
245 765 -2.453748 1.885153 2.145 
255 765 -1.819756 2.640227 2.022 
265 765 -1.638438 2.477744 2.969 
275 765 -1.531476 2.314341 1.811 
285 765 -1.440785 1.665822 7.764 
295 765 -1.166053 1.499309 3.040 
305 765 -1.619160 1.479647 1.086 
315 765 -2.062667 1.140700 2.272 
325 765 -1.905069 1.517173 1.607 
335 765 -1.427824 1.634359 3.574 
345 765 -1.850291 1.902487 3.711 
355 765 -2.216863 2.152602 2.228 
365 765 -2.291081 2.308857 1.011 
375 765 -1.707218 3.208371 2.575 
385 765 -1.773460 3.285340 1.768 
395 765 -2.074002 2.712555 1.013 
405 765 -1.862214 1.523389 1.364 
415 765 -1.255528 1.390233 1.497 
425 765 -0.973132 1.960491 1.815 
435 765 -1.252104 2.635649 1.496 
445 765 -1.720121 2.610908 1.720 
455 765 -1.466914 2.367896 1.595 
465 765 -0.872826 2.200336 2.235 
475 765 -0.867381 2.354032 2.981 
485 765 -0.891856 2.428016 5.515 
495 765 -1.055491 2.275727 5.906 
505 765 -1.367977 2.157788 12.077 
515 765 -1.318700 2.263525 1.194 
525 765 -1.248334 2.507888 2.661 
535 765 -1.164957 2.471391 3.360 
545 765 -1.194854 2.201046 2.704 
555 765 -1.281461 1.915710 3.137 
565 765 -1.106051 1.889061 3.094 
575 765 -0.892070 1.794171 7.718 
585 765 -1.298949 1.649726 1.627 
595 765 -1.120152 1.542550 6.320 
605 765 -0.792285 1.574596 4.414 
615 765 -0.720037 1.769569 2.677 
625 765 -0.862628 1.154480 2.640 
635 765 -1.065422 0.714968 2.110 
645 765 -1.148755 0.928226 1.014 
655 765 -0.721555 1.026131 1.313 
665 765 -1.498912 1.971498 1.942 
675 765 -2.123322 1.796244 2.132 
685 765 -2.054160 1.981548 1.096 
695 765 -1.606038 1.551616 1.297 
705 765 -1.529929 1.950473 1.324 
715 765 -1.820240 2.191851 1.614 
725 765 -1.384953 1.856263 1.143 
735 765 -1.045487 2.093132 1.246 
745 765 -1.035325 1.820790 2.310 
755 765 -1.056435 1.490215 4.485 
765 765 -1.721800 1.933978 3.179 
775 765 -2.555060 2.113463 2.061 
785 765 -3.397110 2.137697 3.288 
795 765 -3.677213 2.004050 1.749 
805 765 -3.942775 1.997999 1.684 
815 765 -3.926218 2.291192 2.352 
825 765 -4.149929 2.662077 1.532 
835 765 -4.114889 3.022909 2.851 
845 765 -4.271114 3.178627 5.083 
855 765 -4.216008 3.013823 2.253 
865 765 -4.319483 2.820828 2.579 
875 765 -4.429900 2.687850 1.773 
885 765 -3.947464 1.687124 1.719 
895 765 -3.657462 0.717514 1.291 
905 765 -3.754743 0.577530 2.240 
915 765 -3.920275 0.440865 5.993 
925 765 -3.412043 0.226620 2.225 
935 765 -3.036099 0.380884 3.596 
945 765 -2.664159 0.390649 12.670 
955 765 -2.720836 0.065937 4.086 
965 765 -2.259574 0.306931 1.635 
975 765 -2.264506 0.565387 3.780 
985 765 -2.300475 0.947205 1.768 
995 765 -2.705118 1.361890 1.349 
1005 765 -2.686331 1.939929 1.316 
1015 765 -2.386894 1.870290 1.337 
1025 765 -2.440205 1.748342 1.272 
1035 765 -2.317223 1.541972 2.220 
1045 765 -2.700655 1.829455 1.084 
1055 765 -2.742193 2.784334 41.138 
1065 765 -3.108245 3.443064 2.880 
1075 765 -3.617399 3.695818 10.965 
1085 765 -4.121642 2.721456 20.000 
1095 765 -5.275148 0.645101 1.895 
1105 765 -6.294276 -0.436562 2.931 
1115 765 -6.847666 -0.782757 2.035 
1125 765 -7.550081 -0.927514 1.593 
1135 765 -7.709969 -2.162006 1.472 
1145 765 -6.343844 -2.400582 1.613 
1155 765 -1.930878 -1.806908 1.201 
1165 765 -0.929222 -2.931072 1.169 
1175 765 -3.423884 -7.007092 1.265 
1185 765 -9.666046 -9.122921 1.066 
1195 765 -7.862230 -9.114356 1.223 
1205 765 -7.687411 -10.698288 1.571 
1215 765 -9.292950 -13.567462 1.562 
1225 765 -11.357719 -16.281948 2.461 
1235 765 -11.984270 -15.551593 1.266 
1245 765 -10.479736 -13.500429 1.219 
1255 765 -9.416132 -11.725925 1.517 
1265 765 -14.473951 -7.235683 1.474 
1275 765 -16.237203 -12.080424 1.270 
5 755 -2.859520 -3.850800 1.283 
15 755 -3.456599 -3.787684 1.283 
25 755 0.214901 -3.038186 1.065 
35 755 1.607655 -2.185089 2.351 
45 755 1.418719 1.747953 1.370 
55 755 0.892989 6.506823 1.005 
65 755 0.638539 9.441550 1.049 
75 755 -0.148152 11.199152 1.075 
85 755 -1.368458 12.409517 1.030 
95 755 -2.836054 10.478472 1.019 
105 755 -4.303650 8.547428 1.217 
115 755 -1.727586 -0.316081 1.338 
125 755 -0.729061 -5.624455 1.344 
135 755 -1.845065 -4.507436 1.136 
145 755 -2.961069 -3.390417 1.000 
155 755 -2.675426 -0.981458 1.810 
165 755 -2.389783 1.427501 2.111 
175 755 0.614629 4.967140 1.083 
185 755 2.904286 6.947353 1.324 
195 755 1.999114 6.098818 1.361 
205 755 0.070670 3.280064 1.739 
215 755 -2.295448 0.925169 3.975 
225 755 -2.414059 1.132425 4.955 
235 755 -1.996260 2.168951 4.329 
245 755 -1.881958 2.511968 2.610 
255 755 -0.877680 2.363291 3.270 
265 755 -0.886533 2.726744 1.807 
275 755 -1.033333 2.151811 1.511 
285 755 -1.337488 1.506861 1.423 
295 755 -1.486275 1.513261 1.098 
305 755 -1.664157 1.549079 1.108 
315 755 -1.795691 1.168738 1.837 
325 755 -1.721236 1.490491 3.459 
335 755 -0.927311 1.803946 2.805 
345 755 -1.094891 2.109440 2.314 
355 755 -1.608715 2.100689 1.281 
365 755 -2.238102 1.462302 1.004 
375 755 -1.345358 2.534796 1.892 
385 755 -1.677853 2.945512 1.702 
395 755 -1.901636 2.530653 1.087 
405 755 -1.756166 1.627831 1.008 
415 755 -1.403214 1.201730 1.144 
425 755 -1.048741 1.653534 1.312 
435 755 -1.279576 2.648603 1.107 
445 755 -1.333431 2.376180 1.146 
455 755 -1.387287 2.103756 2.165 
465 755 -0.787580 2.088428 2.786 
475 755 -0.773786 2.322318 3.766 
485 755 -0.777007 2.363744 6.521 
495 755 -0.917010 2.057570 7.189 
505 755 -1.245591 1.750164 3.063 
515 755 -1.145550 1.785809 2.003 
525 755 -1.002420 2.060531 1.577 
535 755 -0.939935 2.214735 3.805 
545 755 -0.999397 2.237065 8.288 
555 755 -1.044986 2.242523 4.960 
565 755 -0.874001 2.127576 2.747 
575 755 -0.637026 1.913301 4.515 
585 755 -0.664926 1.743425 1.933 
595 755 -0.716868 1.438405 1.984 
605 755 -0.597451 1.316150 12.812 
615 755 -0.487244 1.440720 2.648 
625 755 -0.753006 1.388424 2.470 
635 755 -0.986732 1.190726 2.680 
645 755 -1.113633 0.817932 1.092 
655 755 -1.114011 1.044316 1.470 
665 755 -1.524706 1.517748 1.103 
675 755 -1.983853 1.923321 1.005 
685 755 -1.766387 1.997485 1.060 
695 755 -1.712034 1.561409 1.446 
705 755 -1.674030 1.590876 1.326 
715 755 -1.920735 1.712732 1.523 
725 755 -1.440902 1.570360 1.040 
735 755 -0.989244 1.830229 1.808 
745 755 -0.842790 1.544472 2.440 
755 755 -0.967055 1.589412 2.969 
765 755 -1.824267 1.783915 2.704 
775 755 -2.673968 2.023285 2.441 
785 755 -3.686600 2.028028 5.549 
795 755 -4.219182 1.909592 3.405 
805 755 -4.390377 1.908048 3.103 
815 755 -4.427173 2.182120 2.900 
825 755 -4.542161 2.581390 2.013 
835 755 -4.914905 2.955593 2.629 
845 755 -4.884664 3.237630 3.559 
855 755 -4.829905 3.330368 2.996 
865 755 -5.061894 3.124512 1.740 
875 755 -5.159270 2.812967 1.594 
885 755 -4.562219 1.844771 2.114 
895 755 -4.116019 1.066234 1.919 
905 755 -3.874909 0.793934 3.304 
915 755 -4.210726 0.608472 3.247 
925 755 -4.097789 0.390776 2.149 
935 755 -3.677505 0.289464 2.725 
945 755 -2.906574 0.227339 2.281 
955 755 -2.464198 0.259861 7.674 
965 755 -2.040206 0.393188 2.275 
975 755 -2.040523 0.464930 1.897 
985 755 -2.284347 0.598591 1.267 
995 755 -2.866507 1.326460 2.081 
1005 755 -3.293155 1.241900 2.290 
1015 755 -2.850673 1.416652 4.209 
1025 755 -2.589972 1.293140 1.100 
1035 755 -2.576136 1.276443 1.052 
1045 755 -2.451017 1.886253 2.012 
1055 755 -2.067236 2.382702 2.494 
1065 755 -2.206382 2.798824 2.025 
1075 755 -3.181671 2.875333 67.799 
1085 755 -4.393693 2.300650 20.000 
1095 755 -5.443178 0.732072 8.250 
1105 755 -6.204404 -0.263721 20.000 
1115 755 -7.070584 -0.754045 3.580 
1125 755 -7.009765 -0.918394 1.620 
1135 755 -7.444645 -1.402433 1.416 
1145 755 -5.877378 -2.098559 2.536 
1155 755 -2.126597 -2.719985 1.104 
1165 755 0.387122 -4.328861 1.003 
1175 755 -4.986405 -8.890731 1.109 
1185 755 -7.388179 -11.482790 1.569 
1195 755 -7.845211 -11.996395 1.775 
1205 755 -8.015269 -12.994725 2.080 
1215 755 -8.657186 -16.265961 1.397 
1225 755 -10.734577 -18.671861 1.688 
1235 755 -11.304438 -17.856830 1.305 
1245 755 -10.218437 -15.789691 1.118 
1255 755 -8.783945 -13.527721 1.059 
1265 755 -21.437993 -10.715091 1.208 
1275 755 -16.663791 -11.563406 1.115 
5 745 -7.094046 -2.903205 1.006 
15 745 -7.806151 -2.710023 1.006 
25 745 -2.136854 -1.904210 1.012 
35 745 0.193236 -0.942539 1.102 
45 745 0.031561 3.078214 1.435 
55 745 -0.247091 7.034458 1.182 
65 745 -0.430257 8.984458 1.162 
75 745 -0.415609 9.780623 1.369 
85 745 -1.172844 11.337891 1.088 
95 745 -8.103138 12.203848 1.479 
105 745 -6.912495 7.325586 1.408 
115 745 -3.815927 0.536854 1.059 
125 745 -0.052559 -5.699461 1.461 
135 745 -0.473079 -3.835017 1.314 
145 745 -0.893598 -1.970574 1.236 
155 745 -1.947355 -0.574464 2.921 
165 745 -2.176979 0.806353 5.601 
175 745 -1.134553 1.753200 2.234 
185 745 -0.267897 3.027569 1.737 
195 745 -1.365578 2.592949 1.454 
205 745 -1.838852 1.504040 2.974 
215 745 -2.490631 0.972145 3.324 
225 745 -2.210952 1.652024 2.906 
235 745 -1.794805 2.041213 3.607 
245 745 -1.064810 1.854180 2.559 
255 745 -0.784279 1.986116 1.659 
265 745 -0.759874 2.124265 6.721 
275 745 -1.073763 1.385165 13.034 
285 745 -1.051124 1.178768 6.619 
295 745 -1.189871 1.336009 1.486 
305 745 -1.352891 1.523983 1.605 
315 745 -1.528716 1.196776 2.254 
325 745 -1.123338 1.528962 1.548 
335 745 -0.812015 1.753981 2.324 
345 745 -0.800136 2.025807 1.695 
355 745 -0.486757 0.890824 1.162 
365 745 -0.213018 -0.690585 1.109 
375 745 -0.369928 0.697934 1.018 
385 745 -1.639396 2.592821 1.059 
395 745 -1.957030 2.340776 1.414 
405 745 -1.869252 1.513935 2.932 
415 745 -1.639804 1.124167 1.368 
425 745 -1.374828 1.440906 1.453 
435 745 -1.321715 2.078929 1.256 
445 745 -1.231398 1.946691 1.069 
455 745 -1.053179 1.990116 1.911 
465 745 -0.287652 2.169785 1.920 
475 745 -0.426728 2.688508 1.358 
485 745 -0.758764 2.556753 2.150 
495 745 -0.891467 1.894006 1.676 
505 745 -0.959825 1.223961 1.827 
515 745 -0.561308 1.188761 2.118 
525 745 -0.437803 1.618266 2.938 
535 745 -0.485112 2.067621 2.874 
545 745 -0.621149 2.268895 3.476 
555 745 -0.847951 2.495598 5.643 
565 745 -1.096339 2.419922 3.074 
575 745 -0.563878 2.188276 7.338 
585 745 -0.420267 1.948786 4.921 
595 745 -0.397558 1.562089 1.770 
605 745 -0.224457 1.294882 3.177 
615 745 -0.115000 1.292396 5.837 
625 745 -0.958209 1.375565 2.098 
635 745 -1.191479 1.405036 1.562 
645 745 -1.320660 1.324504 1.531 
655 745 -1.533417 0.999625 2.317 
665 745 -1.933464 1.147790 1.788 
675 745 -1.889424 1.219876 1.743 
685 745 -1.381696 1.854984 2.142 
695 745 -1.640383 1.501322 1.361 
705 745 -2.002124 1.627506 1.674 
715 745 -2.587704 0.950160 1.149 
725 745 -2.329895 0.987599 1.016 
735 745 -1.332478 1.655962 1.494 
745 745 -0.650256 1.268154 1.920 
755 745 -1.131251 1.070740 2.654 
765 745 -2.075880 1.258003 4.138 
775 745 -2.994080 1.218426 2.544 
785 745 -3.861579 1.244629 2.418 
795 745 -4.308790 1.294974 3.268 
805 745 -4.321220 1.465919 2.594 
815 745 -4.595855 1.431711 1.807 
825 745 -4.616687 1.981844 1.441 
835 745 -4.724820 2.544699 1.476 
845 745 -4.589708 3.253212 3.410 
855 745 -4.376414 3.924109 3.957 
865 745 -4.507175 3.878028 8.257 
875 745 -4.967725 3.182972 2.626 
885 745 -4.954399 2.515939 3.327 
895 745 -4.284374 1.842488 2.060 
905 745 -4.068088 1.451310 1.471 
915 745 -4.328362 1.088467 1.349 
925 745 -4.197348 0.553933 1.775 
935 745 -3.733215 0.170838 2.548 
945 745 -2.678049 0.231662 9.888 
955 745 -2.043474 0.448964 5.762 
965 745 -2.119917 0.638514 1.791 
975 745 -2.207965 0.682298 1.072 
985 745 -2.322944 0.532796 1.130 
995 745 -2.838736 0.855494 3.093 
1005 745 -3.563053 0.602382 2.841 
1015 745 -3.331438 0.671109 6.811 
1025 745 -2.742206 1.115219 2.330 
1035 745 -2.467121 1.416272 5.679 
1045 745 -2.114851 1.825686 2.724 
1055 745 -1.765302 2.044074 3.326 
1065 745 -1.797918 2.124227 2.413 
1075 745 -2.732173 2.080797 1.738 
1085 745 -3.892377 1.688985 3.983 
1095 745 -4.776116 0.868422 14.207 
1105 745 -5.296369 0.322887 20.000 
1115 745 -5.667854 -0.242977 1.241 
1125 745 -5.366726 -0.633444 1.221 
1135 745 -5.014252 -0.701579 1.508 
1145 745 -2.931521 -1.438616 1.406 
1155 745 -0.131415 -3.144411 1.128 
1165 745 3.291282 -5.628733 1.863 
1175 745 -1.610931 -6.551468 1.081 
1185 745 -5.342861 -11.169122 1.463 
1195 745 -6.678296 -12.619868 1.142 
1205 745 -8.013732 -14.070613 1.147 
1215 745 -7.738800 -17.958591 1.087 
1225 745 -9.758153 -19.771898 1.616 
1235 745 -10.743193 -19.314045 1.048 
1245 745 -8.686289 -16.706363 1.143 
1255 745 -6.145955 -13.929465 1.300 
1265 745 -16.949579 -11.755530 1.108 
1275 745 -17.090378 -11.046388 1.021 
5 735 -3.249636 -1.890822 1.542 
15 735 -8.093485 -1.258424 1.542 
25 735 -1.000071 -0.501017 1.158 
35 735 -0.469644 -0.200205 1.147 
45 735 -0.312260 2.319817 1.223 
55 735 -0.441307 4.279301 1.569 
65 735 -0.165608 4.807866 1.250 
75 735 -0.683066 8.362095 1.097 
85 735 -1.110332 10.768763 1.258 
95 735 -7.319847 12.038575 1.048 
105 735 -6.508164 8.202125 1.247 
115 735 -5.463208 3.500754 1.024 
125 735 -1.266301 -2.017218 1.110 
135 735 -0.334489 -1.007575 1.073 
145 735 0.597322 0.002068 1.107 
155 735 -1.805529 -0.125752 2.037 
165 735 -2.117417 0.578820 6.812 
175 735 -1.081080 1.210772 2.676 
185 735 -0.938562 1.690994 1.595 
195 735 -1.366923 1.752575 2.344 
205 735 -1.743613 1.435267 6.576 
215 735 -1.755707 2.107974 2.071 
225 735 -2.170861 2.434962 5.914 
235 735 -2.178933 2.786457 2.508 
245 735 -1.237592 1.369604 1.928 
255 735 -0.999739 1.508534 1.306 
265 735 -1.277676 1.631081 8.341 
275 735 -1.223401 1.273602 1.449 
285 735 -1.206797 1.033841 1.513 
295 735 -1.152169 1.263055 2.000 
305 735 -0.782235 1.276061 1.067 
315 735 -0.811003 1.312621 1.124 
325 735 -0.870026 1.405987 3.034 
335 735 -0.736285 1.660978 6.026 
345 735 -0.589708 1.925011 2.001 
355 735 -0.426995 1.570385 1.064 
365 735 -0.218659 0.169388 1.622 
375 735 -0.487780 1.023300 1.468 
385 735 -1.510090 2.140829 1.061 
395 735 -1.839558 1.907415 1.665 
405 735 -1.871204 1.391393 6.854 
415 735 -1.729440 1.183264 5.486 
425 735 -1.351799 1.535390 2.306 
435 735 -1.363853 1.509255 1.059 
445 735 -1.361441 1.201353 1.074 
455 735 -0.719518 1.840607 1.079 
465 735 0.218900 2.393526 2.211 
475 735 -0.079669 3.054697 2.179 
485 735 -0.685192 2.818494 2.694 
495 735 -0.866597 2.018292 1.041 
505 735 -0.670758 0.950922 1.172 
515 735 -0.297290 1.063163 1.854 
525 735 0.060106 1.575876 1.471 
535 735 0.006804 1.857065 3.928 
545 735 -0.227334 2.147657 1.908 
555 735 -0.699057 2.597402 1.951 
565 735 -1.015257 2.611161 1.647 
575 735 -0.775537 2.235896 2.498 
585 735 -0.523095 1.952944 15.250 
595 735 -0.364668 1.619171 3.777 
605 735 -0.193605 1.198157 3.218 
615 735 0.033646 1.223333 3.277 
625 735 -0.588098 1.183952 2.084 
635 735 -0.906295 0.972922 1.030 
645 735 -1.200601 0.875047 1.747 
655 735 -1.486178 1.081147 2.169 
665 735 -1.797425 0.807262 1.288 
675 735 -1.694802 0.935909 1.653 
685 735 -1.298140 1.360003 2.137 
695 735 -1.568732 1.441235 1.744 
705 735 -1.728128 1.239704 1.717 
715 735 -2.187009 0.892337 1.355 
725 735 -2.287545 0.737374 1.353 
735 735 -1.711385 1.275803 2.033 
745 735 -1.049055 0.816379 3.089 
755 735 -1.425298 0.574007 7.650 
765 735 -2.179699 0.436382 4.831 
775 735 -2.825798 0.418546 3.266 
785 735 -3.838400 0.441447 16.382 
795 735 -4.068906 0.683966 7.614 
805 735 -3.758779 0.931872 3.138 
815 735 -3.764383 1.639714 3.147 
825 735 -3.893411 1.862496 4.211 
835 735 -3.844585 2.275532 2.247 
845 735 -3.629567 2.602813 3.075 
855 735 -3.521542 3.606307 1.229 
865 735 -3.895421 3.756267 1.874 
875 735 -4.415093 3.523284 10.672 
885 735 -4.637781 3.242571 2.241 
895 735 -4.181168 2.829562 3.328 
905 735 -4.114477 2.528922 1.807 
915 735 -4.477914 1.756497 2.469 
925 735 -4.288953 1.021094 2.963 
935 735 -3.488774 0.424520 3.283 
945 735 -2.385516 0.239966 1.722 
955 735 -1.806019 0.447070 1.167 
965 735 -2.200463 0.837327 1.123 
975 735 -2.333123 0.862145 1.643 
985 735 -2.274065 0.504021 2.150 
995 735 -2.810964 0.384529 3.297 
1005 735 -3.589474 0.213196 3.569 
1015 735 -3.404324 0.238324 4.080 
1025 735 -2.774947 0.982128 1.475 
1035 735 -2.337190 1.497468 2.249 