TITLE = "B00021"
VARIABLES = "x", "y", "u", "v", "sn"
ZONE T="Frame 0", I=128, J=80
5 795 0.000000 -0.000000 1.388 
15 795 0.478190 3.935229 1.388 
25 795 -1.158183 2.423306 1.045 
35 795 -2.794556 0.911382 1.183 
45 795 -1.890063 -3.078452 1.047 
55 795 -2.602507 -3.252464 1.723 
65 795 -3.314952 -3.426476 1.040 
75 795 -4.027396 -3.600489 1.074 
85 795 -6.696830 -3.845883 1.017 
95 795 -8.994429 -9.100458 1.228 
105 795 -11.555102 -10.235790 1.918 
115 795 -11.549053 -8.496738 1.164 
125 795 -10.719768 -5.373386 1.030 
135 795 -8.412142 -3.018440 1.096 
145 795 -5.785697 -1.440118 1.224 
155 795 -4.501065 -2.517500 1.807 
165 795 -4.443416 -1.883939 1.508 
175 795 -4.385767 -1.250379 1.054 
185 795 -4.328117 -0.616819 4.225 
195 795 -4.270468 0.016741 41.409 
205 795 -4.879830 0.861969 20.000 
215 795 -4.752357 1.876889 2.159 
225 795 -3.661639 2.770302 1.225 
235 795 -3.035001 2.554208 1.363 
245 795 -2.031809 4.872831 1.015 
255 795 -1.250307 5.106127 1.122 
265 795 -0.468805 5.339423 1.047 
275 795 -3.537740 0.264990 3.966 
285 795 -3.665561 1.288309 1.001 
295 795 -3.221097 1.046949 1.042 
305 795 -2.776633 0.805588 1.009 
315 795 -2.390692 1.041860 1.097 
325 795 -2.004750 1.278132 2.433 
335 795 -2.087608 1.963731 1.273 
345 795 -1.855040 2.429401 1.369 
355 795 -1.284518 2.530696 1.244 
365 795 -1.295682 2.158878 2.275 
375 795 -1.320073 2.087124 2.115 
385 795 -1.527076 2.642152 1.881 
395 795 -1.935873 2.937047 2.525 
405 795 -1.915082 3.225410 1.264 
415 795 -1.484009 3.315267 2.970 
425 795 -1.388790 3.399499 2.124 
435 795 -1.856311 3.425055 2.405 
445 795 -1.979043 3.448329 2.352 
455 795 -1.761583 3.471681 2.327 
465 795 -2.191393 3.584975 1.657 
475 795 -2.843512 4.194991 2.841 
485 795 -2.934431 4.091553 3.390 
495 795 -3.025351 3.988115 1.543 
505 795 -2.897582 3.297591 1.773 
515 795 -2.663944 3.030538 1.512 
525 795 -2.162128 3.385096 1.301 
535 795 -1.464803 4.375929 1.658 
545 795 -0.808628 4.688068 2.633 
555 795 -0.935567 4.643077 2.718 
565 795 -0.985700 4.649478 1.974 
575 795 -0.723025 4.417139 1.787 
585 795 -0.617044 4.696948 1.364 
595 795 -1.343431 4.977111 1.169 
605 795 -2.134399 4.810604 1.080 
615 795 -1.953943 4.133205 4.439 
625 795 -1.716097 3.486149 4.016 
635 795 -1.352081 3.182189 2.023 
645 795 -1.194416 3.147394 1.386 
655 795 -1.747505 2.856036 2.181 
665 795 -2.545549 2.545407 7.355 
675 795 -3.066412 2.450310 49.488 
685 795 -2.933621 2.574094 20.000 
695 795 -2.800830 2.697879 1.768 
705 795 -2.178209 3.023470 2.023 
715 795 -2.125354 2.976099 5.011 
725 795 -2.545646 2.762517 3.827 
735 795 -2.484468 3.087597 2.393 
745 795 -2.484736 3.208987 4.083 
755 795 -2.550637 3.511874 9.760 
765 795 -2.336153 3.793629 4.621 
775 795 -1.785646 3.518571 2.166 
785 795 -1.796695 3.275953 1.999 
795 795 -2.230856 2.651986 3.097 
805 795 -2.506914 1.734877 1.688 
815 795 -2.427564 1.935796 1.008 
825 795 -2.301989 2.504719 4.221 
835 795 -2.504230 2.802542 3.453 
845 795 -2.489058 2.777203 3.078 
855 795 -2.003301 2.446833 2.147 
865 795 -2.076515 2.359715 35.129 
875 795 -3.696258 1.955393 5.155 
885 795 -5.596564 2.030762 2.729 
895 795 -5.324610 3.041044 1.903 
905 795 -4.711955 4.839138 1.233 
915 795 -3.867435 5.330812 1.465 
925 795 -3.475919 3.836986 1.753 
935 795 -3.675026 2.145380 1.782 
945 795 -2.930183 2.203665 1.800 
955 795 -2.185340 2.261950 2.532 
965 795 -1.493770 2.498299 2.435 
975 795 -1.357682 3.086028 1.208 
985 795 -1.221595 3.673757 1.203 
995 795 -1.085507 4.261485 1.273 
1005 795 -1.829340 4.405158 2.188 
1015 795 -2.573173 4.548830 9.536 
1025 795 -2.511115 3.771555 6.291 
1035 795 -2.952870 2.901894 2.369 
1045 795 -3.248020 2.455903 2.448 
1055 795 -3.355788 2.627936 9.374 
1065 795 -5.371626 2.784570 5.184 
1075 795 -12.560192 2.722352 1.098 
1085 795 -19.748758 2.660133 1.555 
1095 795 -17.494562 1.323484 1.294 
1105 795 -6.615012 0.735902 1.117 
1115 795 -6.144730 2.722426 1.019 
1125 795 -5.674448 4.708950 1.266 
1135 795 -6.651719 5.234710 1.208 
1145 795 -9.278059 8.819075 1.045 
1155 795 -11.904398 12.403440 1.025 
1165 795 -14.530737 15.987805 1.110 
1175 795 -2.947936 5.395477 1.049 
1185 795 -0.070215 5.203430 1.339 
1195 795 2.807507 5.011383 1.141 
1205 795 0.568620 4.836991 1.058 
1215 795 -0.863384 4.122901 1.033 
1225 795 -2.789096 7.044952 1.087 
1235 795 -4.171285 5.537422 1.641 
1245 795 -3.586022 3.466673 1.034 
1255 795 -3.000759 1.395924 1.011 
1265 795 -2.415496 -0.674825 1.303 
1275 795 0.000000 -0.000000 1.240 
5 785 -0.198997 7.260766 1.388 
15 785 -1.669052 7.110671 1.388 
25 785 -3.999804 3.085141 1.045 
35 785 -4.345737 2.228309 1.183 
45 785 -3.017950 -1.070513 1.047 
55 785 -1.599056 -1.379047 1.723 
65 785 -0.180163 -1.687581 1.040 
75 785 -1.976962 -3.919562 1.074 
85 785 -5.382100 -4.555759 1.017 
95 785 -9.404485 -6.162606 1.228 
105 785 -11.838833 -9.963659 1.918 
115 785 -12.079240 -6.169032 1.164 
125 785 -10.853112 -3.187621 1.030 
135 785 -8.201913 -0.031862 1.096 
145 785 -5.481573 0.172111 1.224 
155 785 -4.192697 -0.909840 1.807 
165 785 -4.717724 -2.101931 1.508 
175 785 -5.242751 -3.294022 1.054 
185 785 -4.104023 -0.485229 4.225 
195 785 -4.340659 0.909009 41.409 
205 785 -4.840580 1.393867 20.000 
215 785 -4.653038 1.983330 2.159 
225 785 -3.567345 2.839390 1.225 
235 785 -2.675761 2.615507 1.363 
245 785 -2.412253 3.522786 1.015 
255 785 -1.913589 2.851058 1.122 
265 785 -1.414925 2.179330 1.047 
275 785 -2.733706 0.187735 3.966 
285 785 -3.010079 1.268821 1.001 
295 785 -2.721192 1.338288 1.042 
305 785 -2.432304 1.407756 1.009 
315 785 -1.913409 0.941257 1.097 
325 785 -1.870982 1.457009 2.433 
335 785 -2.010648 2.033985 1.273 
345 785 -1.799182 2.403812 1.369 
355 785 -1.244549 2.533428 1.244 
365 785 -1.244403 2.225351 2.275 
375 785 -1.242870 2.177815 2.115 
385 785 -1.412958 2.652247 1.881 
395 785 -1.774696 2.846188 2.525 
405 785 -1.794240 3.099066 1.264 
415 785 -1.407398 3.182129 2.970 
425 785 -1.257977 3.283213 2.124 
435 785 -1.661404 3.281459 2.405 
445 785 -1.878710 3.343780 2.352 
455 785 -1.649295 3.322681 2.327 
465 785 -2.038738 3.438560 1.657 
475 785 -2.609202 3.964221 2.841 
485 785 -2.856692 4.248173 3.390 
495 785 -2.736764 3.775788 1.543 
505 785 -2.614407 3.251078 1.773 
515 785 -2.362947 3.040760 1.512 
525 785 -1.910923 3.351721 1.301 
535 785 -1.268731 4.342933 1.658 
545 785 -0.645792 4.603464 2.633 
555 785 -0.801027 4.502894 2.718 
565 785 -0.881477 4.429152 1.974 
575 785 -0.659956 4.222510 1.787 
585 785 -0.525943 4.476825 1.364 
595 785 -1.185180 4.700654 1.169 
605 785 -1.923404 4.561911 1.080 
615 785 -1.787070 3.977884 4.439 
625 785 -1.610460 3.430325 4.016 
635 785 -1.288885 3.150426 2.023 
645 785 -1.105579 3.142284 1.386 
655 785 -1.600388 2.893729 2.181 
665 785 -2.367014 2.634686 7.355 
675 785 -2.801143 2.585415 49.488 
685 785 -2.806125 2.632373 20.000 
695 785 -2.334913 2.905307 1.768 
705 785 -2.025869 3.073515 2.023 
715 785 -2.011053 3.032844 5.011 
725 785 -2.455225 2.792552 3.827 
735 785 -2.390998 3.098139 2.393 
745 785 -2.370650 3.228815 4.083 
755 785 -2.390935 3.588240 9.760 
765 785 -2.158907 3.928478 4.621 
775 785 -1.655061 3.684946 2.166 
785 785 -1.618606 3.445859 1.999 
795 785 -2.094303 2.758160 3.097 
805 785 -2.384587 1.823383 1.688 
815 785 -2.317476 2.026046 1.008 
825 785 -2.214212 2.579723 4.221 
835 785 -2.420357 2.866457 3.453 
845 785 -2.358471 2.786973 3.078 
855 785 -2.007923 2.309379 2.147 
865 785 -2.103167 2.131152 35.129 
875 785 -3.518425 1.814951 5.155 
885 785 -5.237607 2.082973 2.729 
895 785 -5.035733 3.005303 1.903 
905 785 -4.529741 4.550111 1.233 
915 785 -3.719694 4.620705 1.465 
925 785 -3.425549 3.754111 1.753 
935 785 -3.590311 2.215297 1.782 
945 785 -3.021676 2.005361 1.800 
955 785 -2.214444 2.320542 2.532 
965 785 -1.866637 2.358751 2.435 
975 785 -1.634655 3.250760 1.208 
985 785 -1.515167 3.685942 1.203 
995 785 -1.964220 3.639065 1.273 
1005 785 -2.724137 4.593372 2.188 
1015 785 -2.710722 4.375670 9.536 
1025 785 -2.557358 3.719691 6.291 
1035 785 -3.004909 2.757232 2.369 
1045 785 -3.192808 2.227502 2.448 
1055 785 -3.443175 2.418200 9.374 
1065 785 -5.185980 2.661628 5.184 
1075 785 -5.546426 2.941001 1.098 
1085 785 -17.373030 2.615930 1.555 
1095 785 -15.239549 1.421125 1.294 
1105 785 -4.821072 0.727481 1.117 
1115 785 -5.829150 -0.373108 1.019 
1125 785 -5.363581 2.722843 1.266 
1135 785 -6.267422 5.749724 1.208 
1145 785 -16.744371 11.683644 1.045 
1155 785 -13.588388 11.537028 1.025 
1165 785 -10.432406 11.390413 1.110 
1175 785 -3.444484 5.224471 1.049 
1185 785 4.093176 5.130184 1.339 
1195 785 2.966852 4.514953 1.141 
1205 785 1.214924 3.838414 1.058 
1215 785 0.745235 3.394896 1.033 
1225 785 -0.754706 6.828475 1.087 
1235 785 -2.084704 5.580720 1.641 
1245 785 -2.946687 3.771055 1.034 
1255 785 -2.275376 0.459292 1.011 
1265 785 -0.788971 0.086868 1.303 
1275 785 0.518641 0.122471 1.240 
5 775 -8.621224 6.742744 1.195 
15 775 -9.180010 6.182067 1.195 
25 775 -6.903678 3.793028 2.564 
35 775 -5.691558 1.974178 2.017 
45 775 -4.405637 1.056197 1.357 
55 775 -2.443934 -1.492660 1.070 
65 775 -0.415502 -2.769013 1.899 
75 775 -0.378239 -3.263493 1.373 
85 775 -4.229526 -3.469739 1.472 
95 775 -9.814541 -3.224753 1.043 
105 775 -14.317411 -2.452056 1.023 
115 775 -11.875057 -1.525571 1.304 
125 775 -9.432704 -0.599085 1.127 
135 775 -6.486223 0.438220 1.053 
145 775 -4.398224 0.319084 1.060 
155 775 -3.392259 -0.275295 1.379 
165 775 -4.059470 -1.005980 3.872 
175 775 -4.884842 -0.868487 5.482 
185 775 -5.000013 0.519584 7.032 
195 775 -5.009019 1.316197 4.692 
205 775 -5.251988 1.991433 1.337 
215 775 -4.632664 2.105676 1.204 
225 775 -3.526810 2.558304 1.105 
235 775 -2.716898 2.776957 1.366 
245 775 -2.792698 2.172741 1.072 
255 775 -1.999947 2.193527 1.067 
265 775 -1.482787 1.690655 2.060 
275 775 -1.788880 0.324325 2.314 
285 775 -2.344856 1.011595 2.350 
295 775 -2.604643 2.675518 1.871 
305 775 -1.807300 2.219003 1.411 
315 775 -1.705766 2.367615 2.138 
325 775 -1.663914 2.153414 1.504 
335 775 -2.101115 2.062635 2.761 
345 775 -1.805445 2.300061 1.610 
355 775 -1.303893 2.413122 1.066 
365 775 -1.200220 2.565620 1.219 
375 775 -1.281483 2.768340 1.904 
385 775 -1.166868 2.543081 1.755 
395 775 -1.318365 2.552355 5.154 
405 775 -1.789404 2.710942 1.366 
415 775 -1.477940 2.874238 3.321 
425 775 -1.227725 2.894620 3.188 
435 775 -1.262009 2.969410 3.387 
445 775 -1.508336 3.126271 2.314 
455 775 -1.915727 3.232524 2.600 
465 775 -1.665239 3.321507 1.075 
475 775 -2.373363 3.659114 1.780 
485 775 -2.391072 3.897989 1.811 
495 775 -2.354464 3.550541 1.340 
505 775 -2.343068 3.248139 1.785 
515 775 -1.835612 3.105099 2.857 
525 775 -1.397284 3.352075 1.701 
535 775 -1.036123 4.507046 1.713 
545 775 -0.858572 4.711800 1.535 
555 775 -0.721434 4.397687 2.492 
565 775 -0.777746 3.809258 1.759 
575 775 -0.786835 3.422426 2.017 
585 775 -0.694689 3.908955 2.348 
595 775 -1.073902 4.266200 1.680 
605 775 -1.398080 4.195736 1.235 
615 775 -1.699401 3.650304 2.064 
625 775 -1.550421 3.338021 1.713 
635 775 -1.253561 3.157733 1.612 
645 775 -1.102400 3.055497 2.316 
655 775 -1.439937 3.011960 1.353 
665 775 -1.954803 2.991701 2.288 
675 775 -2.237249 2.883040 2.246 
685 775 -2.215410 2.904660 2.264 
695 775 -1.901766 3.122572 1.694 
705 775 -1.791322 3.201164 3.634 
715 775 -2.036739 3.101873 4.295 
725 775 -2.494702 3.030949 2.475 
735 775 -2.620369 3.066284 4.344 
745 775 -2.303083 3.045156 3.405 
755 775 -2.192256 3.544813 4.855 
765 775 -1.873266 4.294102 2.437 
775 775 -1.484609 4.344981 1.662 
785 775 -1.516812 3.399567 1.875 
795 775 -2.020245 2.461254 2.159 
805 775 -2.316353 1.891868 1.959 
815 775 -2.445092 1.851740 1.156 
825 775 -2.706814 2.371092 3.093 
835 775 -2.545273 2.777429 20.000 
845 775 -2.627028 2.394149 5.598 
855 775 -2.286578 1.548136 1.412 
865 775 -2.140934 1.231304 2.245 
875 775 -3.029270 1.306535 3.386 
885 775 -4.247427 1.784346 2.903 
895 775 -4.092604 2.748821 1.242 
905 775 -3.992677 3.629242 1.420 
915 775 -3.571953 3.910598 1.034 
925 775 -3.217775 3.042502 1.595 
935 775 -3.494201 2.596620 2.671 
945 775 -2.900265 2.574668 2.894 
955 775 -1.847595 2.566671 1.061 
965 775 -1.965037 2.466928 1.259 
975 775 -1.992261 3.226263 1.081 
985 775 -2.400564 3.829308 1.061 
995 775 -2.922043 3.683273 1.667 
1005 775 -3.176582 4.053470 1.953 
1015 775 -2.979572 4.086383 3.666 
1025 775 -2.673148 3.448591 28.514 
1035 775 -2.737655 2.357112 2.348 
1045 775 -2.913597 1.719469 1.906 
1055 775 -2.920736 1.907031 1.000 
1065 775 -4.125401 2.493816 1.323 
1075 775 -4.166461 3.008967 1.014 
1085 775 -11.220430 2.309886 1.303 
1095 775 -9.604295 1.252836 1.154 
1105 775 -3.683950 0.814937 1.078 
1115 775 -6.029315 1.401509 1.691 
1125 775 -5.855499 2.701237 2.176 
1135 775 -6.034349 4.966202 1.008 
1145 775 -6.851182 6.586736 1.188 
1155 775 -7.668016 8.207270 1.414 
1165 775 -6.317521 5.835658 1.148 
1175 775 -7.045191 0.923574 1.031 
1185 775 1.299945 -0.876585 1.144 
1195 775 0.231905 0.506505 1.087 
1205 775 0.596099 0.620075 1.070 
1215 775 0.175613 2.207289 1.256 
1225 775 0.055639 5.758586 1.353 
1235 775 -0.557007 4.717313 1.641 
1245 775 -0.577400 2.641828 1.199 
1255 775 0.264569 0.323793 1.416 
1265 775 -1.482113 0.476300 1.241 
1275 775 3.342521 0.744586 1.093 
5 765 -15.365189 4.575820 1.085 
15 765 -16.122869 4.540201 1.085 
25 765 -12.407938 2.783681 1.101 
35 765 -7.406533 0.867445 1.350 
45 765 -5.628456 0.730561 1.012 
55 765 -2.817061 -0.810032 1.260 
65 765 0.205213 -2.432269 1.487 
75 765 0.603090 -2.074641 1.602 
85 765 -3.009439 -1.350738 1.323 
95 765 -7.410511 -1.605695 1.124 
105 765 -11.490771 -1.280943 1.372 
115 765 -9.977579 -0.292996 1.174 
125 765 -8.464387 0.694951 1.038 
135 765 -5.762967 0.644907 1.063 
145 765 -3.601313 0.491261 1.500 
155 765 -3.640427 0.365381 1.930 
165 765 -3.679540 0.239501 1.494 
175 765 -4.727208 0.372601 17.441 
185 765 -5.150789 0.836697 4.078 
195 765 -5.272508 1.510243 2.709 
205 765 -4.999812 2.215556 1.443 
215 765 -4.277759 2.398089 1.671 
225 765 -3.467803 2.687334 1.422 
235 765 -2.807291 3.243361 1.225 
245 765 -2.365915 3.024644 1.368 
255 765 -1.792219 2.228510 1.536 
265 765 -1.550649 1.201979 3.211 
275 765 -0.844054 0.460916 1.685 
285 765 -0.756708 0.813730 3.928 
295 765 -1.428280 2.250859 1.947 
305 765 -1.762047 2.428946 2.179 
315 765 -1.644539 2.402996 3.346 
325 765 -1.624635 1.898733 6.198 
335 765 -2.062609 1.822276 1.162 
345 765 -1.839325 2.181960 1.412 
355 765 -1.416365 2.294766 1.119 
365 765 -1.235493 2.893698 4.577 
375 765 -1.201665 2.940262 5.264 
385 765 -1.187230 2.707520 2.812 
395 765 -1.346307 2.500605 2.221 
405 765 -1.881592 2.326797 1.541 
415 765 -1.871936 2.587885 2.677 
425 765 -1.158334 2.451560 2.020 
435 765 -1.053030 2.620627 1.648 
445 765 -1.143244 2.852979 2.944 
455 765 -1.333715 3.112655 4.864 
465 765 -1.314669 3.176325 5.299 
475 765 -1.732099 3.329250 5.813 
485 765 -1.870870 3.430362 2.697 
495 765 -1.839804 3.378851 1.221 
505 765 -1.771634 3.277074 1.395 
515 765 -1.533501 3.253340 2.316 
525 765 -1.455379 3.536354 1.396 
535 765 -1.233531 4.085830 1.105 
545 765 -1.145897 4.232113 1.240 
555 765 -0.988356 3.535005 1.461 
565 765 -0.941785 3.176959 1.845 
575 765 -0.762819 3.050598 1.316 
585 765 -0.715986 3.499340 3.852 
595 765 -0.815822 3.541494 5.405 
605 765 -1.044743 3.380062 1.548 
615 765 -1.383821 3.218245 2.390 
625 765 -1.376405 3.151292 1.140 
635 765 -1.138044 3.128138 1.056 
645 765 -1.103311 2.915025 1.434 
655 765 -1.410300 2.949084 1.453 
665 765 -1.857335 3.012990 3.188 
675 765 -2.127278 3.044589 3.783 
685 765 -1.796615 3.114758 1.977 
695 765 -1.868782 3.108046 1.999 
705 765 -1.669428 3.236634 3.705 
715 765 -2.192261 3.013983 2.131 
725 765 -2.236327 2.801159 3.240 
735 765 -2.314042 2.629598 2.928 
745 765 -2.088875 2.810817 2.733 
755 765 -1.597267 3.605506 2.439 
765 765 -1.419250 4.350998 1.847 
775 765 -0.934795 4.605263 1.791 
785 765 -1.008518 3.957117 1.317 
795 765 -1.478290 2.781268 1.042 
805 765 -2.107111 2.056485 1.902 
815 765 -2.175400 2.159078 1.817 
825 765 -2.407901 2.558923 2.165 
835 765 -2.670189 2.688401 6.252 
845 765 -2.448492 2.189043 5.490 
855 765 -1.870969 0.722069 2.054 
865 765 -2.006954 0.349876 1.663 
875 765 -2.409235 0.789815 4.410 
885 765 -3.075917 1.515849 4.949 
895 765 -2.999861 2.517050 2.302 
905 765 -3.511088 2.610582 1.876 
915 765 -3.365811 2.737610 1.743 
925 765 -3.111563 2.808794 2.673 
935 765 -2.887993 2.652984 3.820 
945 765 -2.216578 2.693678 3.816 
955 765 -1.542724 2.823978 1.707 
965 765 -1.704281 2.704661 1.970 
975 765 -2.173968 3.428616 1.992 
985 765 -3.109397 4.129498 2.110 
995 765 -3.354833 3.643443 1.192 
1005 765 -3.577638 3.754475 1.125 
1015 765 -3.265955 3.856871 1.116 
1025 765 -2.838943 3.299854 3.963 
1035 765 -2.699219 2.076674 1.158 
1045 765 -2.776849 1.181658 1.505 
1055 765 -2.693264 1.312997 1.317 
1065 765 -3.629993 2.278035 2.327 
1075 765 -4.955597 2.615760 5.025 
1085 765 -5.067831 2.003842 1.989 
1095 765 -3.969042 1.084546 1.872 
1105 765 -5.480393 1.261680 1.099 
1115 765 -6.229480 3.176126 1.079 
1125 765 -6.347417 2.679632 1.110 
1135 765 -6.715177 4.392738 1.096 
1145 765 -6.994293 5.573027 1.183 
1155 765 -7.273410 6.753316 1.046 
1165 765 -6.966203 3.922518 2.078 
1175 765 -7.152522 -1.209557 1.367 
1185 765 -5.371651 -2.113763 1.239 
1195 765 -2.914294 -1.418965 1.181 
1205 765 -0.071321 -0.066428 1.208 
1215 765 0.404838 -1.689919 1.539 
1225 765 0.633265 -0.268820 1.132 
1235 765 0.182447 2.101804 1.044 
1245 765 0.217789 0.778203 1.256 
1255 765 0.253130 -0.545397 1.395 
1265 765 -2.175255 0.865731 1.080 
1275 765 6.166401 1.366701 1.004 
5 755 -15.356561 5.589875 1.338 
15 755 -16.010257 5.263670 1.338 
25 755 -13.592816 3.177539 1.141 
35 755 -10.415684 1.315641 1.287 
45 755 -8.991361 0.483502 1.252 
55 755 -3.157474 -1.022105 1.272 
65 755 0.109883 -1.628640 1.412 
75 755 0.852736 -1.109772 1.047 
85 755 -2.311665 0.628491 1.289 
95 755 -5.883413 1.867454 1.076 
105 755 -8.352938 1.867047 1.062 
115 755 -9.934524 1.844988 1.064 
125 755 -8.242892 2.430286 1.150 
135 755 -5.138034 0.957065 1.172 
145 755 -3.348614 0.978593 3.501 
155 755 -3.508187 1.000301 20.000 
165 755 -3.667761 1.022008 20.000 
175 755 -4.375446 1.215170 8.727 
185 755 -4.930179 1.158869 1.384 
195 755 -4.999952 1.608424 1.001 
205 755 -4.296306 2.319194 1.499 
215 755 -3.487635 2.786613 1.960 
225 755 -3.339174 2.841654 1.438 
235 755 -3.247671 3.078944 1.328 
245 755 -2.809051 3.220020 1.397 
255 755 -2.210002 2.795593 1.255 
265 755 -1.446880 1.174145 1.940 
275 755 -0.988368 0.444110 1.298 
285 755 -0.793043 1.117771 3.939 
295 755 -1.030653 1.593159 2.119 
305 755 -1.668358 1.963577 6.144 
315 755 -1.720798 1.726152 3.230 
325 755 -1.902911 1.524516 32.459 
335 755 -2.011745 1.602150 7.882 
345 755 -2.085013 2.174246 3.154 
355 755 -1.740396 2.662195 4.506 
365 755 -1.437353 3.035569 5.735 
375 755 -1.429495 2.948752 5.380 
385 755 -1.663145 2.849826 5.243 
395 755 -2.286767 2.383046 1.855 
405 755 -2.356517 2.486347 1.152 
415 755 -2.082173 2.452436 1.276 
425 755 -1.232504 2.288704 1.551 
435 755 -0.844050 2.271844 1.740 
445 755 -0.882118 2.298563 1.636 
455 755 -1.081894 2.687775 5.212 
465 755 -1.218231 2.859936 26.205 
475 755 -1.370300 3.060048 4.609 
485 755 -1.273531 3.114709 2.890 
495 755 -1.465910 2.804806 36.394 
505 755 -1.772720 2.591480 4.895 
515 755 -1.670258 2.851824 1.871 
525 755 -1.237022 3.876121 1.308 
535 755 -1.268222 3.840462 1.554 
545 755 -1.438312 3.449718 2.243 
555 755 -1.432319 3.012454 2.693 
565 755 -0.989542 2.952593 2.744 
575 755 -0.833350 2.860567 1.445 
585 755 -0.635288 3.169800 2.939 
595 755 -0.817946 3.319469 3.027 
605 755 -0.938641 3.137118 2.010 
615 755 -1.075969 2.994037 2.895 
625 755 -1.093281 2.888720 9.467 
635 755 -0.818679 2.850218 2.131 
645 755 -1.059340 2.818046 2.117 
655 755 -1.351658 2.884414 2.693 
665 755 -2.096954 2.999026 2.206 
675 755 -2.245085 3.040306 1.224 
685 755 -1.882501 2.772410 1.696 
695 755 -1.584607 2.911954 3.139 
705 755 -1.471570 3.126369 7.045 
715 755 -1.702864 2.989227 4.068 
725 755 -1.786964 2.903893 2.215 
735 755 -2.006790 2.899057 2.055 
745 755 -1.919783 3.051987 1.891 
755 755 -1.488045 3.585698 2.822 
765 755 -1.038342 4.426891 8.929 
775 755 -0.773419 4.478150 8.554 
785 755 -0.508495 4.529410 1.885 
795 755 -1.043009 3.386782 1.820 
805 755 -1.774703 2.659734 1.712 
815 755 -1.473304 2.357988 1.271 
825 755 -1.591269 2.839973 1.130 
835 755 -2.145236 2.859287 1.666 
845 755 -1.825869 2.216961 1.262 
855 755 -1.655584 0.902204 1.540 
865 755 -1.819728 0.550746 2.987 
875 755 -1.409718 0.719613 2.970 
885 755 -1.771742 1.289331 1.947 
895 755 -2.463220 2.077826 1.217 
905 755 -3.315418 2.374252 1.706 
915 755 -3.545431 2.513513 2.684 
925 755 -3.090491 2.715165 4.121 
935 755 -2.741819 2.824967 3.135 
945 755 -2.273049 2.834295 4.902 
955 755 -1.766497 2.796408 2.030 
965 755 -1.882612 2.841982 2.701 
975 755 -2.588231 3.509041 2.329 
985 755 -3.210938 3.951908 2.629 
995 755 -3.781263 3.635774 1.243 
1005 755 -3.790720 3.700897 2.469 
1015 755 -3.554551 4.141571 4.354 
1025 755 -2.845374 3.751810 2.662 
1035 755 -2.778040 2.036014 2.599 
1045 755 -2.934952 1.182621 1.829 
1055 755 -3.305715 1.112569 2.562 
1065 755 -4.156850 1.777992 3.851 
1075 755 -4.919693 2.105027 7.355 
1085 755 -5.688667 1.746074 2.451 
1095 755 -6.003005 1.730494 2.415 
1105 755 -7.735809 4.856899 1.311 
1115 755 -9.165204 6.410231 2.132 
1125 755 -7.944015 4.570749 1.763 
1135 755 -7.685129 3.018239 2.111 
1145 755 -7.356959 3.328113 1.016 
1155 755 -7.819123 3.932709 1.244 
1165 755 -7.614886 2.009378 1.076 
1175 755 -7.259852 -3.342689 1.101 
1185 755 -6.502609 -2.046375 1.093 
1195 755 -4.355652 0.315674 1.331 
1205 755 -0.738741 -0.752931 1.224 
1215 755 0.707430 -1.275197 1.189 
1225 755 -0.630546 0.216735 1.071 
1235 755 -0.363478 -0.051688 1.340 
1245 755 -0.184945 -0.506118 1.029 
1255 755 -0.006412 -0.960549 1.074 
1265 755 -2.868397 1.255163 1.014 
1275 755 8.990282 1.988817 1.027 
5 745 -13.290648 6.337139 1.264 
15 745 -13.061533 4.129172 1.264 
25 745 -14.200121 4.135544 1.236 
35 745 -13.291384 1.844646 1.325 
45 745 -12.185797 0.340142 1.046 
55 745 -4.490510 -2.018289 1.020 
65 745 -0.979370 -2.048378 1.035 
75 745 -0.586290 -0.763607 1.404 
85 745 -0.470324 1.902454 1.476 
95 745 -2.375322 5.314281 1.015 
105 745 -4.877899 6.503579 1.036 
115 745 -6.647242 6.105804 1.255 
125 745 -7.666166 5.034909 1.221 
135 745 -5.770220 4.180488 1.070 
145 745 -3.637827 1.039719 816.493 
155 745 -3.321114 1.669999 20.000 
165 745 -3.715680 1.562115 20.000 
175 745 -4.173799 1.759464 5.310 
185 745 -4.604822 1.570558 1.839 
195 745 -4.562435 1.776321 2.985 
205 745 -3.476752 2.346182 3.017 
215 745 -3.051470 2.996401 1.437 
225 745 -3.273685 3.266316 1.060 
235 745 -3.174360 3.046053 1.174 
245 745 -3.004974 2.919410 1.019 
255 745 -2.176018 1.919844 1.036 
265 745 -1.747957 0.919414 10.182 
275 745 -1.590492 0.448214 1.239 
285 745 -1.256547 0.967893 2.976 
295 745 -1.368184 1.439132 3.214 
305 745 -1.837432 1.537054 4.070 
315 745 -2.026409 1.465721 1.807 
325 745 -2.038811 1.570514 4.360 
335 745 -2.063852 1.860697 6.037 
345 745 -2.142860 3.247445 1.015 
355 745 -1.994980 3.170239 1.507 
365 745 -1.903461 3.024340 2.715 
375 745 -1.967711 2.963870 2.286 
385 745 -2.371505 2.905408 2.109 
395 745 -2.541473 2.693390 1.522 
405 745 -2.789609 2.803362 1.152 
415 745 -2.137618 2.594357 1.310 
425 745 -1.573284 2.383766 1.557 
435 745 -1.097822 2.320030 2.634 
445 745 -1.386728 2.529696 3.701 
455 745 -1.549552 2.629467 2.528 
465 745 -1.524954 2.599220 3.264 
475 745 -1.437834 2.688616 3.621 
485 745 -1.237082 2.792607 3.699 
495 745 -1.451687 2.606400 20.000 
505 745 -1.735260 2.522816 3.989 
515 745 -1.718056 2.793828 9.472 
525 745 -1.356586 3.642321 1.013 
535 745 -1.260178 3.923860 2.334 
545 745 -1.567888 3.738745 1.361 
555 745 -1.910604 3.322113 2.157 
565 745 -1.703683 3.064899 1.089 
575 745 -0.966312 2.852653 1.349 
585 745 -0.848336 3.050840 2.343 
595 745 -0.904926 3.204900 2.418 
605 745 -0.931401 3.084741 3.035 
615 745 -1.000571 2.941091 3.425 
625 745 -0.965415 2.855705 4.787 
635 745 -0.901995 2.753162 2.689 
645 745 -1.097936 2.767304 1.787 
655 745 -1.416997 2.760571 1.723 
665 745 -2.204175 2.736330 1.603 
675 745 -2.484981 2.879753 1.527 
685 745 -2.082797 2.973306 2.076 
695 745 -1.469117 2.992393 5.468 
705 745 -1.269722 3.051582 9.095 
715 745 -1.323149 3.008116 9.042 
725 745 -1.566221 3.097091 2.694 
735 745 -1.731144 3.301937 3.167 
745 745 -1.730120 3.497910 2.637 
755 745 -1.451096 3.796734 2.267 
765 745 -0.955991 4.410493 5.343 
775 745 -0.751616 4.603494 11.381 
785 745 -0.547241 4.796495 4.045 
795 745 -1.027868 3.727314 2.427 
805 745 -1.466562 2.592371 1.844 
815 745 -1.608041 2.314374 1.947 
825 745 -1.818523 2.497365 1.595 
835 745 -2.158577 2.697186 1.906 
845 745 -2.419957 2.327722 1.064 
855 745 -1.860272 1.252752 1.577 
865 745 -1.632501 0.751616 1.813 
875 745 -1.460734 0.619921 4.695 
885 745 -1.513333 1.270650 5.573 
895 745 -2.397355 1.587083 1.682 
905 745 -2.987884 1.923348 1.731 
915 745 -3.233775 2.323383 1.569 
925 745 -2.982973 2.920675 2.254 
935 745 -2.852036 3.090668 3.056 
945 745 -2.674757 3.074840 12.193 
955 745 -2.634842 2.899749 2.121 
965 745 -2.969814 3.045695 2.406 
975 745 -3.174973 3.460050 6.375 
985 745 -3.341304 3.834918 1.538 
995 745 -3.636548 4.288717 1.090 
1005 745 -3.788454 4.168851 1.406 
1015 745 -3.343793 4.421072 1.598 
1025 745 -2.413069 4.183199 1.847 
1035 745 -2.862455 2.764254 6.584 
1045 745 -3.418187 1.297332 2.284 
1055 745 -4.158633 0.940214 3.614 
1065 745 -4.833130 1.286832 7.834 
1075 745 -5.153953 1.732909 2.211 
1085 745 -5.665612 1.832352 1.641 
1095 745 -6.064109 1.674639 3.691 
1105 745 -9.075323 3.346516 1.097 
1115 745 -8.948923 5.503527 2.384 
1125 745 -9.540613 6.461867 2.094 
1135 745 -7.128996 1.286557 1.643 
1145 745 -6.272461 0.520504 1.044 
1155 745 -6.679138 0.905172 3.047 
1165 745 -7.097004 0.755144 1.861 
1175 745 -6.960935 -1.507910 1.362 
1185 745 -7.043830 -0.681953 1.102 
1195 745 -6.652332 2.098376 1.667 
1205 745 -1.805094 1.851720 1.078 
1215 745 -1.009755 1.462145 1.220 
1225 745 -0.214416 1.072571 1.117 
1235 745 -0.901751 0.503325 1.452 
1245 745 1.556552 -0.680340 1.287 
1255 745 7.508211 -0.717215 1.609 
1265 745 11.742014 1.192540 1.079 
1275 745 11.814162 2.610932 1.061 
5 735 -7.805669 2.634178 1.106 
15 735 -10.112808 2.994674 1.106 
25 735 -12.536484 3.067267 1.125 
35 735 -15.235181 2.244020 1.086 
45 735 -14.789581 -0.615974 1.394 
55 735 -6.463470 -3.004684 1.884 
65 735 -3.270402 -2.521854 1.428 
75 735 -2.811463 0.116331 1.038 
85 735 -0.376657 4.073156 1.333 
95 735 0.077415 8.810689 1.307 
105 735 -1.109800 10.720614 1.137 
115 735 -2.968121 9.720666 1.562 
125 735 -6.774314 7.592601 1.984 
135 735 -5.842182 7.387304 1.186 
145 735 -3.406518 1.649464 2.514 
155 735 -3.550272 1.738167 2.931 
165 735 -3.930729 1.880618 3.327 
175 735 -4.074532 2.184330 3.297 
185 735 -4.386278 2.085489 3.740 
195 735 -4.116539 2.095247 3.858 
205 735 -2.904641 2.463124 1.834 
215 735 -2.561562 3.182809 1.605 
225 735 -2.989324 3.272865 1.235 
235 735 -3.114824 2.967204 1.750 
245 735 -3.022922 2.910856 1.140 
255 735 -2.359380 1.779225 1.009 
265 735 -2.167698 0.719497 3.996 
275 735 -2.261536 0.881348 1.310 
285 735 -2.106584 1.368060 1.922 
295 735 -1.990422 1.745305 2.518 
305 735 -2.159051 1.619004 2.506 
315 735 -2.201289 1.618900 3.020 
325 735 -2.082112 1.903565 1.638 
335 735 -2.084436 2.120251 1.576 
345 735 -2.082523 2.667413 1.026 
355 735 -2.234163 3.628593 1.227 
365 735 -2.274583 2.761328 2.134 
375 735 -2.451206 2.741939 2.348 
385 735 -2.857844 2.893744 3.314 
395 735 -2.796180 3.003734 1.200 
405 735 -2.518694 2.838668 1.293 
415 735 -1.830858 2.676976 5.841 
425 735 -1.305918 2.666399 20.000 
435 735 -1.210176 2.727699 3.164 
445 735 -1.691478 2.745813 51.232 
455 735 -1.925428 2.764783 38.338 
465 735 -1.966353 2.668253 7.495 
475 735 -1.851233 2.557051 5.033 
485 735 -1.558303 2.600487 2.314 
495 735 -1.618360 2.592672 17.990 
505 735 -1.917304 2.563539 3.265 
515 735 -1.862975 2.982913 8.814 
525 735 -1.450660 3.463298 3.095 
535 735 -1.173181 3.726804 1.067 
545 735 -1.518077 3.265230 1.459 
555 735 -1.896985 2.936058 1.876 
565 735 -1.716271 2.814376 1.233 
575 735 -1.103093 2.399070 1.987 
585 735 -1.448323 2.727532 1.895 
595 735 -1.370957 3.131605 2.110 
605 735 -0.955187 3.067066 1.969 
615 735 -1.036626 2.951726 1.675 
625 735 -1.049515 2.853531 2.789 
635 735 -1.040463 2.716318 3.394 
645 735 -1.290945 2.642714 1.717 
655 735 -1.560909 2.504754 1.877 
665 735 -1.994246 2.459291 1.672 
675 735 -2.214323 2.699566 1.475 
685 735 -1.972617 3.091921 2.552 
695 735 -1.192931 3.190024 2.127 
705 735 -0.932702 3.123610 2.199 
715 735 -1.056476 2.968779 3.102 
725 735 -1.298590 2.718713 2.932 
735 735 -1.338017 3.290706 2.302 
745 735 -1.284898 3.409962 2.600 
755 735 -1.236091 3.503677 2.100 
765 735 -1.259653 3.932967 2.041 
775 735 -0.905266 4.649740 2.972 
785 735 -0.970944 4.462961 3.538 
795 735 -1.126251 3.385700 2.718 
805 735 -1.373126 2.280713 1.718 
815 735 -1.763393 2.244378 2.649 
825 735 -2.257491 2.331412 2.211 
835 735 -2.393472 2.350544 1.902 
845 735 -2.257286 2.142280 2.174 
855 735 -2.584246 1.404587 4.186 
865 735 -2.299633 0.583648 2.761 
875 735 -2.242441 0.232983 2.235 
885 735 -1.964055 0.829186 4.028 
895 735 -2.411831 1.301356 1.913 
905 735 -2.790859 1.600941 2.079 
915 735 -2.667381 2.079793 2.659 
925 735 -2.448616 2.971578 1.811 
935 735 -2.462898 3.319155 2.341 
945 735 -2.761594 3.112770 2.528 
955 735 -3.101230 2.729810 2.603 
965 735 -3.433063 2.824683 2.702 
975 735 -3.605896 3.236453 4.199 
985 735 -3.500432 3.890270 1.913 
995 735 -3.311281 4.348237 1.870 
1005 735 -3.695973 4.386650 1.562 
1015 735 -3.201310 4.349632 3.590 
1025 735 -3.112855 3.576807 1.579 
1035 735 -3.024400 2.803982 3.398 
1045 735 -3.834713 1.394213 1.988 