TITLE = "B00018"
VARIABLES = "x", "y", "u", "v", "sn"
ZONE T="Frame 0", I=128, J=80
5 795 0.000000 -0.000000 1.092 
15 795 4.480113 -16.313248 1.092 
25 795 2.859730 -20.872999 1.274 
35 795 -0.289006 -7.162076 1.244 
45 795 -0.400208 3.241609 1.075 
55 795 -3.835180 1.751932 1.572 
65 795 -7.270151 0.262256 1.265 
75 795 -6.797225 -0.248796 1.551 
85 795 -3.391071 2.185189 1.438 
95 795 -3.766324 5.465131 1.660 
105 795 -4.141578 8.745073 1.010 
115 795 -3.841086 11.044419 1.257 
125 795 -2.838868 12.191581 1.096 
135 795 -1.733432 13.372141 1.008 
145 795 -3.060184 10.891844 1.047 
155 795 -4.386936 8.411547 1.187 
165 795 -5.713688 5.931249 1.266 
175 795 -7.040439 3.450952 1.700 
185 795 -8.367191 0.970655 10.832 
195 795 -7.381455 0.666874 8.614 
205 795 -7.090158 0.897170 6.308 
215 795 -7.377703 0.861067 3.165 
225 795 -7.665247 0.824964 4.902 
235 795 -7.400604 0.727249 56.546 
245 795 -7.400348 0.890772 1.920 
255 795 -7.400092 1.054296 1.178 
265 795 -7.536510 1.039218 1.852 
275 795 -7.070021 0.569529 1.919 
285 795 -6.670795 0.177267 4.481 
295 795 -6.914620 0.219438 3.834 
305 795 -6.881557 0.410740 16.268 
315 795 -7.266780 0.445140 4.803 
325 795 -8.322758 -0.055248 1.544 
335 795 -8.136165 -0.029623 2.913 
345 795 -7.581531 0.324615 2.003 
355 795 -7.335711 0.530256 1.840 
365 795 -7.225548 0.428211 1.590 
375 795 -7.511684 0.384504 1.404 
385 795 -7.279875 0.460013 2.013 
395 795 -6.754098 0.377895 1.972 
405 795 -6.956523 0.676600 5.494 
415 795 -7.325197 0.755941 7.147 
425 795 -7.587229 0.277559 2.138 
435 795 -7.823896 0.314780 1.133 
445 795 -8.104921 0.377045 2.667 
455 795 -8.179463 0.289227 2.804 
465 795 -8.093521 0.246890 1.475 
475 795 -8.222769 0.120543 3.236 
485 795 -8.314680 0.061264 8.078 
495 795 -8.249965 0.039215 3.883 
505 795 -8.228918 0.255244 1.631 
515 795 -8.273194 0.278203 1.705 
525 795 -8.317470 0.301161 1.507 
535 795 -8.230747 -0.210296 5.688 
545 795 -8.353118 -0.388843 20.000 
555 795 -8.432092 -0.235698 4.418 
565 795 -8.570791 0.074951 1.580 
575 795 -8.433521 0.192361 1.250 
585 795 -8.249825 0.143332 2.553 
595 795 -8.227501 -0.054610 2.702 
605 795 -8.258969 0.201742 5.564 
615 795 -8.220527 0.226145 3.134 
625 795 -8.322991 0.319932 1.811 
635 795 -8.365741 0.245319 2.214 
645 795 -7.998150 0.143711 2.191 
655 795 -8.541500 0.322207 2.795 
665 795 -9.410920 0.357447 2.924 
675 795 -10.280339 0.392687 1.511 
685 795 -9.905458 -0.150137 1.273 
695 795 -9.530578 -0.692961 1.871 
705 795 -9.155697 -1.235784 1.348 
715 795 -9.407602 -0.928869 1.025 
725 795 -8.834132 -0.519275 2.056 
735 795 -8.394076 -0.768428 2.408 
745 795 -8.125055 -1.053363 2.208 
755 795 -8.726564 0.302721 1.956 
765 795 -8.804231 0.438204 2.606 
775 795 -8.696430 0.232856 2.024 
785 795 -8.490538 0.441619 3.088 
795 795 -8.607270 0.432053 2.392 
805 795 -9.108054 0.234944 1.304 
815 795 -8.920063 -0.276613 2.156 
825 795 -8.444460 -0.251787 2.399 
835 795 -7.991505 0.170389 2.703 
845 795 -7.771198 0.901229 2.278 
855 795 -8.439195 0.332484 2.370 
865 795 -9.107192 -0.236262 1.510 
875 795 -9.054912 -1.184314 1.862 
885 795 -9.001620 -1.432701 2.332 
895 795 -8.601646 -1.406651 5.121 
905 795 -8.507860 -0.963638 1.253 
915 795 -8.607573 -0.661099 1.630 
925 795 -8.779430 -0.897702 6.363 
935 795 -8.916006 -0.838452 2.652 
945 795 -8.802669 -0.649379 1.649 
955 795 -8.630661 -1.103947 2.104 
965 795 -8.585324 -0.964033 1.763 
975 795 -8.372352 -0.863504 2.780 
985 795 -8.006164 -0.664293 1.070 
995 795 -7.669201 -0.195085 1.509 
1005 795 -7.432207 0.064137 1.993 
1015 795 -7.474424 -0.113991 3.345 
1025 795 -7.615460 -0.693829 1.288 
1035 795 -7.907741 -0.584652 1.052 
1045 795 -7.861481 -0.072051 1.050 
1055 795 -7.815221 0.440551 1.331 
1065 795 -7.768961 0.953153 1.935 
1075 795 -7.385490 0.591735 2.068 
1085 795 -7.443191 0.108672 6.658 
1095 795 -7.500891 -0.374392 1.909 
1105 795 -6.518608 1.311958 3.639 
1115 795 -2.913983 3.212048 2.538 
1125 795 1.122222 5.222671 1.553 
1135 795 0.015860 7.903199 1.976 
1145 795 -1.090501 10.583726 1.083 
1155 795 -2.760608 14.328709 1.119 
1165 795 4.821823 21.497562 1.022 
1175 795 8.294748 20.538095 1.705 
1185 795 11.767674 19.578629 1.246 
1195 795 12.954065 15.609457 1.394 
1205 795 15.472050 11.200528 1.017 
1215 795 15.979263 6.068607 1.230 
1225 795 9.592378 3.513710 1.342 
1235 795 2.864380 0.708020 1.341 
1245 795 3.069452 -0.172572 1.044 
1255 795 3.274524 -1.053164 1.028 
1265 795 3.479596 -1.933755 1.074 
1275 795 0.000000 -0.000000 1.116 
5 785 0.000000 -0.000000 1.092 
15 785 4.761979 -14.730650 1.092 
25 785 3.177507 -18.648062 1.274 
35 785 0.276576 -4.910094 1.244 
45 785 -0.138214 -2.249490 1.075 
55 785 -0.553004 0.411114 1.572 
65 785 -6.637101 1.451580 1.265 
75 785 -6.280599 0.595714 1.551 
85 785 -4.043165 2.588426 1.438 
95 785 -2.333628 4.927414 1.660 
105 785 -3.501882 7.177359 1.010 
115 785 -3.332035 8.562523 1.257 
125 785 -2.998861 10.724458 1.096 
135 785 -2.132476 12.456068 1.008 
145 785 -4.896323 11.522341 1.047 
155 785 -7.660171 10.588614 1.187 
165 785 -8.484738 6.749901 1.266 
175 785 -8.226000 3.371674 1.700 
185 785 -7.476311 0.892492 10.832 
195 785 -7.066535 0.699061 8.614 
205 785 -6.887257 0.813994 6.308 
215 785 -7.113000 1.085911 3.165 
225 785 -7.580968 0.821006 4.902 
235 785 -7.368018 0.717809 56.546 
245 785 -7.178680 0.903325 1.920 
255 785 -7.403948 1.048413 1.178 
265 785 -7.482122 1.046330 1.852 
275 785 -7.000183 0.635158 1.919 
285 785 -6.621437 0.271201 4.481 
295 785 -6.874580 0.290875 3.834 
305 785 -6.924623 0.422410 16.268 
315 785 -7.220801 0.494445 4.803 
325 785 -7.861168 0.247856 1.544 
335 785 -8.002283 0.084097 2.913 
345 785 -7.570690 0.379175 2.003 
355 785 -7.336428 0.542270 1.840 
365 785 -7.234204 0.435838 1.590 
375 785 -7.497185 0.408616 1.404 
385 785 -7.299884 0.485764 2.013 
395 785 -6.814079 0.397296 1.972 
405 785 -6.968791 0.652668 5.494 
415 785 -7.318288 0.805783 7.147 
425 785 -7.525089 0.437297 2.138 
435 785 -7.771470 0.505011 1.133 
445 785 -8.051475 0.481132 2.667 
455 785 -8.173366 0.377980 2.804 
465 785 -8.061124 0.341480 1.475 
475 785 -8.173579 0.207670 3.236 
485 785 -8.252018 0.139191 8.078 
495 785 -8.253121 0.080535 3.883 
505 785 -8.255249 0.213579 1.631 
515 785 -8.548598 0.426315 1.705 
525 785 -8.288754 0.290318 1.507 
535 785 -8.210095 -0.187458 5.688 
545 785 -8.317383 -0.383610 20.000 
555 785 -8.391832 -0.249822 4.418 
565 785 -8.533622 0.032162 1.580 
575 785 -8.373165 0.134684 1.250 
585 785 -8.218312 0.082980 2.553 
595 785 -8.247911 -0.156114 2.702 
605 785 -8.316719 0.091835 5.564 
615 785 -8.214369 0.066005 3.134 
625 785 -8.313341 0.118585 1.811 
635 785 -8.374660 0.054404 2.214 
645 785 -8.033656 0.038985 2.191 
655 785 -8.542080 0.251704 2.795 
665 785 -9.875641 -0.145942 2.924 
675 785 -10.122730 0.292087 1.511 
685 785 -9.629271 0.450119 1.273 
695 785 -9.135813 0.608151 1.871 
705 785 -9.166112 -1.151317 1.348 
715 785 -9.311635 -0.993763 1.025 
725 785 -8.846691 -0.617578 2.056 
735 785 -8.476673 -0.757855 2.408 
745 785 -8.272447 -1.000911 2.208 
755 785 -8.682616 0.158127 1.956 
765 785 -8.700475 0.200019 2.606 
775 785 -8.646785 0.085558 2.024 
785 785 -8.479330 0.303395 3.088 
795 785 -8.574095 0.314932 2.392 
805 785 -8.904522 0.059757 1.304 
815 785 -8.847377 -0.309607 2.156 
825 785 -8.478585 -0.270171 2.399 
835 785 -8.084185 0.184603 2.703 
845 785 -8.073547 0.698419 2.278 
855 785 -8.272026 0.771110 2.370 
865 785 -9.117802 -0.219675 1.510 
875 785 -9.036134 -1.078029 1.862 
885 785 -9.048830 -1.356994 2.332 
895 785 -8.638527 -1.356302 5.121 
905 785 -8.499640 -0.934064 1.253 
915 785 -8.611822 -0.588955 1.630 
925 785 -8.722222 -0.804330 6.363 
935 785 -8.803122 -0.778269 2.652 
945 785 -8.664738 -0.575780 1.649 
955 785 -8.563480 -0.977509 2.104 
965 785 -8.511708 -0.873198 1.763 
975 785 -8.288340 -0.834707 2.780 
985 785 -7.922185 -0.651770 1.070 
995 785 -7.654086 -0.244606 1.509 
1005 785 -7.389321 0.065685 1.993 
1015 785 -7.359351 -0.045049 3.345 
1025 785 -7.482725 -0.551880 1.288 
1035 785 -7.822613 -0.551439 1.052 
1045 785 -7.710721 -0.015894 1.050 
1055 785 -7.707091 0.370423 1.331 
1065 785 -7.703462 0.756740 1.935 
1075 785 -7.414173 0.398003 2.068 
1085 785 -7.108039 -0.404557 6.658 
1095 785 -7.742473 -0.558105 1.909 
1105 785 -7.193148 0.659903 3.639 
1115 785 -3.898965 1.873140 2.538 
1125 785 -0.023734 3.417341 1.553 
1135 785 0.688474 5.437093 1.976 
1145 785 -2.457804 8.628525 1.083 
1155 785 -3.387166 12.778687 1.119 
1165 785 4.322350 19.447292 1.022 
1175 785 8.693200 19.568164 1.705 
1185 785 10.516274 15.031955 1.246 
1195 785 11.593761 13.211221 1.394 
1205 785 13.579912 7.481457 1.017 
1215 785 14.531288 2.886624 1.230 
1225 785 9.139305 0.994803 1.342 
1235 785 3.984185 -1.314979 1.341 
1245 785 4.076827 1.480411 1.044 
1255 785 5.928174 -1.583101 1.028 
1265 785 7.779520 -4.646613 1.074 
1275 785 2.826155 -1.304199 1.116 
5 775 8.084536 -14.454542 1.303 
15 775 8.265427 -16.946347 1.303 
25 775 7.220422 -12.260818 1.355 
35 775 0.193734 -2.183253 1.280 
45 775 0.078798 -0.150475 1.157 
55 775 -0.036138 1.882304 1.016 
65 775 -4.453781 2.057780 1.366 
75 775 -5.325493 0.563701 1.815 
85 775 -4.470653 0.545783 1.168 
95 775 -3.525204 0.567067 1.195 
105 775 -0.645840 0.600731 1.041 
115 775 -2.370072 1.283556 1.018 
125 775 -2.971673 7.192102 1.057 
135 775 -3.731924 9.826352 1.129 
145 775 -4.764950 10.082336 1.070 
155 775 -7.760411 6.716429 1.157 
165 775 -8.033760 4.177933 1.038 
175 775 -6.819221 1.381986 3.626 
185 775 -7.079653 0.516598 4.146 
195 775 -6.796647 0.425348 3.140 
205 775 -6.628753 0.615575 2.426 
215 775 -7.158548 0.965857 1.148 
225 775 -7.373094 0.713111 1.172 
235 775 -7.458198 0.558479 1.809 
245 775 -7.296274 0.705754 2.566 
255 775 -7.557442 1.008965 2.737 
265 775 -7.549491 0.828849 4.045 
275 775 -6.847130 0.816224 12.832 
285 775 -6.571659 0.699500 5.258 
295 775 -7.023849 0.490441 2.701 
305 775 -7.041216 0.516838 2.230 
315 775 -7.183710 0.548955 1.810 
325 775 -7.425763 0.537820 1.016 
335 775 -7.639227 0.471401 1.103 
345 775 -7.120278 0.341586 2.096 
355 775 -7.244359 0.493222 3.218 
365 775 -7.233433 0.518684 2.144 
375 775 -7.440924 0.419849 2.286 
385 775 -7.556021 0.380124 1.252 
395 775 -7.090713 0.405533 1.109 
405 775 -6.781575 0.565836 1.681 
415 775 -7.358529 0.728450 1.891 
425 775 -7.385208 0.917234 3.327 
435 775 -7.667593 0.845317 1.848 
445 775 -7.977930 0.696487 1.990 
455 775 -8.246668 0.537828 2.662 
465 775 -8.167396 0.541515 1.267 
475 775 -7.950528 0.538682 2.007 
485 775 -8.183997 0.256054 2.481 
495 775 -8.296033 0.052678 2.678 
505 775 -8.495914 0.094116 2.283 
515 775 -8.578060 0.214049 3.210 
525 775 -8.176421 0.233623 3.082 
535 775 -8.197508 -0.119048 20.000 
545 775 -8.250068 -0.281311 25.599 
555 775 -8.343355 -0.174438 1.952 
565 775 -8.349447 -0.049934 5.496 
575 775 -8.295074 0.064691 2.064 
585 775 -8.201000 0.009562 2.785 
595 775 -8.192661 -0.080815 2.095 
605 775 -8.364561 -0.231161 1.520 
615 775 -8.261780 -0.429914 2.007 
625 775 -8.377882 -0.385252 1.820 
635 775 -8.331013 -0.279299 2.177 
645 775 -8.112763 -0.045117 2.512 
655 775 -8.390625 0.186702 2.166 
665 775 -9.193050 0.031046 2.586 
675 775 -9.868320 -0.027947 1.507 
685 775 -9.517175 0.507636 1.826 
695 775 -9.204749 0.626108 1.304 
705 775 -9.185990 -0.678096 1.342 
715 775 -9.039872 -0.796097 1.292 
725 775 -8.856153 -0.647632 2.979 
735 775 -8.614303 -0.773369 2.911 
745 775 -8.346513 -0.975734 1.657 
755 775 -8.242059 -0.521305 1.199 
765 775 -8.237933 -0.421019 1.681 
775 775 -8.442537 -0.206613 5.673 
785 775 -8.344687 0.009958 6.128 
795 775 -8.438603 0.062014 1.600 
805 775 -8.667816 -0.109054 3.623 
815 775 -8.642391 -0.186804 4.335 
825 775 -8.390856 -0.234258 3.230 
835 775 -8.286792 -0.077871 2.231 
845 775 -8.555432 0.327125 7.745 
855 775 -8.758493 0.300158 2.981 
865 775 -8.784505 -0.255650 1.338 
875 775 -9.042514 -0.870886 2.729 
885 775 -9.187988 -1.250430 2.261 
895 775 -8.754009 -1.030224 1.403 
905 775 -8.568930 -0.673020 1.410 
915 775 -8.565053 -0.494409 1.879 
925 775 -8.736904 -0.714070 5.733 
935 775 -8.663163 -0.741493 4.662 
945 775 -8.258943 -0.375525 2.757 
955 775 -8.357164 -0.528904 1.959 
965 775 -8.500373 -0.750065 1.645 
975 775 -8.256051 -0.757409 1.583 
985 775 -7.871572 -0.633612 1.254 
995 775 -7.315262 -0.403155 2.001 
1005 775 -7.208443 0.086820 4.162 
1015 775 -7.152346 0.287021 3.540 
1025 775 -7.006593 0.230206 1.364 
1035 775 -6.865196 -0.272913 1.107 
1045 775 -7.174475 0.177558 1.130 
1055 775 -7.513700 0.552865 1.460 
1065 775 -7.333842 0.276674 1.860 
1075 775 -7.236001 0.181438 1.908 
1085 775 -7.168166 -0.401856 1.933 
1095 775 -7.494576 -0.394295 1.838 
1105 775 -7.820986 -0.386733 1.452 
1115 775 -5.061673 0.283161 1.978 
1125 775 -2.458063 1.276587 1.114 
1135 775 -1.333204 2.164595 1.236 
1145 775 -4.342603 4.054142 1.008 
1155 775 -1.766030 7.986386 1.044 
1165 775 5.542036 14.075127 1.076 
1175 775 8.758713 16.844721 1.135 
1185 775 9.264874 10.485281 1.592 
1195 775 9.292373 5.274608 1.049 
1205 775 8.562732 3.433228 1.085 
1215 775 7.100607 2.780741 1.237 
1225 775 6.212368 0.442408 1.015 
1235 775 5.678533 -1.690004 1.117 
1245 775 6.092164 -0.261788 1.066 
1255 775 7.693197 -1.935268 1.811 
1265 775 8.028257 -3.638888 1.259 
1275 775 6.320012 -3.121850 1.151 
5 765 6.543607 -7.682886 1.042 
15 765 6.273013 -6.708603 1.042 
25 765 6.443456 -6.380719 1.277 
35 765 3.741351 4.104386 1.178 
45 765 -0.868581 10.016571 1.076 
55 765 -0.402818 4.997786 1.257 
65 765 -3.732607 4.779896 1.361 
75 765 -4.554857 1.347589 1.556 
85 765 -4.898141 -1.496861 1.715 
95 765 -4.716781 -3.793281 1.080 
105 765 -3.610339 -5.623146 1.102 
115 765 -1.408109 -5.995411 1.371 
125 765 -0.573863 -2.547633 1.288 
135 765 -3.342409 2.105578 1.017 
145 765 -5.152623 6.092394 1.034 
155 765 -7.860651 2.844244 2.967 
165 765 -7.582783 1.605965 2.256 
175 765 -7.144082 1.207622 2.871 
185 765 -6.894469 0.662222 2.435 
195 765 -6.613037 0.461930 2.644 
205 765 -6.774314 0.637778 1.579 
215 765 -7.121920 0.874409 1.161 
225 765 -7.336241 0.756670 1.448 
235 765 -7.433310 0.769260 1.065 
245 765 -7.532261 0.756888 2.959 
255 765 -7.625310 0.988470 2.530 
265 765 -7.520222 0.852905 155.679 
275 765 -6.934732 0.824622 15.749 
285 765 -6.699148 0.701564 4.838 
295 765 -7.361218 0.369954 2.625 
305 765 -7.280744 0.388844 3.106 
315 765 -7.364548 0.388883 5.789 
325 765 -7.543552 0.583190 3.641 
335 765 -7.341092 0.864392 1.010 
345 765 -7.460051 0.571704 2.007 
355 765 -7.638620 0.496879 4.911 
365 765 -7.521826 0.506244 4.883 
375 765 -7.579665 0.512229 1.904 
385 765 -7.755912 0.478101 1.741 
395 765 -7.366681 0.345920 1.693 
405 765 -7.127740 0.472168 2.395 
415 765 -7.475059 0.553658 4.720 
425 765 -7.640646 1.401132 3.794 
435 765 -7.891212 1.189803 2.811 
445 765 -8.208185 0.840252 1.578 
455 765 -8.376927 0.598160 1.894 
465 765 -8.300255 0.530242 2.021 
475 765 -7.986185 0.550073 1.559 
485 765 -8.051089 0.318170 1.685 
495 765 -8.256405 0.031699 1.659 
505 765 -8.511226 -0.091735 3.492 
515 765 -8.357572 -0.076625 3.180 
525 765 -8.124556 0.266260 3.256 
535 765 -8.107753 -0.023063 78.766 
545 765 -8.232437 -0.207420 4.040 
555 765 -8.326653 -0.189504 2.667 
565 765 -8.304899 -0.135532 14.383 
575 765 -8.247603 -0.079545 3.975 
585 765 -8.121314 -0.121909 1.904 
595 765 -8.435503 -0.265512 1.149 
605 765 -8.465645 -0.339685 1.039 
615 765 -7.924112 -0.638394 1.005 
625 765 -8.063382 -0.653557 1.877 
635 765 -8.369566 -0.439383 1.489 
645 765 -8.198238 -0.161023 3.235 
655 765 -8.209341 0.072010 2.154 
665 765 -8.575808 -0.057841 2.930 
675 765 -8.749326 -0.186137 3.990 
685 765 -9.286982 0.016766 3.365 
695 765 -9.263083 0.097230 1.820 
705 765 -8.999621 0.001016 1.780 
715 765 -8.768109 -0.598430 1.498 
725 765 -8.643928 -0.548112 1.496 
735 765 -8.549631 -0.646631 1.755 
745 765 -8.623520 -0.529939 1.814 
755 765 -8.145517 -0.815122 1.188 
765 765 -8.312598 -0.580546 2.580 
775 765 -8.293786 -0.522368 3.306 
785 765 -8.195729 -0.279637 1.929 
795 765 -8.331565 -0.166797 4.141 
805 765 -8.531924 -0.133278 4.559 
815 765 -8.528856 -0.158889 3.014 
825 765 -8.450610 -0.116869 2.665 
835 765 -8.621413 0.080779 3.323 
845 765 -8.790747 0.275857 41.490 
855 765 -8.814010 0.154438 3.791 
865 765 -8.642830 -0.113591 1.839 
875 765 -8.887153 -0.603795 1.726 
885 765 -9.067037 -0.921045 1.502 
895 765 -8.682112 -0.900263 2.133 
905 765 -8.610061 -0.567320 2.055 
915 765 -8.667383 -0.305290 2.571 
925 765 -8.885800 -0.323594 2.897 
935 765 -8.328153 -0.741529 2.886 
945 765 -8.133307 -0.387412 2.859 
955 765 -8.209669 -0.228595 4.350 
965 765 -8.460266 -0.147501 1.554 
975 765 -8.200173 -0.490906 1.827 
985 765 -7.852529 -0.688219 6.957 
995 765 -7.652104 -0.443126 11.412 
1005 765 -7.519930 -0.118925 2.834 
1015 765 -7.359927 0.362834 2.508 
1025 765 -7.146269 0.164787 1.846 
1035 765 -6.920273 0.031504 1.301 
1045 765 -7.183898 -0.068234 1.584 
1055 765 -7.363217 -0.080497 1.966 
1065 765 -7.095629 0.026600 2.706 
1075 765 -7.228647 -0.184067 1.982 
1085 765 -7.102232 -0.521457 1.604 
1095 765 -7.327826 -0.757490 1.903 
1105 765 -7.553419 -0.993523 3.035 
1115 765 -6.258602 -0.855341 1.566 
1125 765 -4.493103 -0.341180 1.453 
1135 765 -4.205782 0.266131 1.016 
1145 765 -6.422600 -0.277047 1.733 
1155 765 -3.140077 3.951702 1.209 
1165 765 2.013769 10.745491 1.325 
1175 765 5.445168 13.724088 1.105 
1185 765 6.420461 8.483522 1.083 
1195 765 6.574866 2.165608 1.236 
1205 765 5.945225 -0.374288 1.345 
1215 765 6.271420 0.283224 1.231 
1225 765 7.019451 -0.251083 1.163 
1235 765 7.188777 -1.725263 1.122 
1245 765 8.107501 -2.003986 1.276 
1255 765 9.458220 -2.287434 1.624 
1265 765 8.276994 -2.631163 1.178 
1275 765 5.539865 -1.640106 1.085 
5 755 5.002678 -0.911229 1.128 
15 755 5.334584 -0.705925 1.128 
25 755 5.666489 -0.500621 1.015 
35 755 0.831327 4.759180 1.254 
45 755 -2.073921 9.067600 1.021 
55 755 -0.926329 8.519008 1.097 
65 755 -3.002827 7.637028 1.114 
75 755 -4.143702 3.496301 1.207 
85 755 -5.556676 -0.759917 1.026 
95 755 -6.573355 -4.868119 1.291 
105 755 -6.331312 -4.898441 1.173 
115 755 -3.457277 -4.860646 1.045 
125 755 -1.047400 -2.306626 1.155 
135 755 -1.740084 2.158651 1.249 
145 755 -5.540296 2.102453 1.331 
155 755 -7.309285 0.756867 3.789 
165 755 -7.615335 0.640302 1.340 
175 755 -6.867005 0.813944 1.590 
185 755 -6.715050 0.892492 1.614 
195 755 -6.589841 0.678680 2.536 
205 755 -6.688375 0.709437 1.635 
215 755 -6.942574 0.799604 2.877 
225 755 -7.084126 0.578662 2.668 
235 755 -7.259536 0.522981 3.003 
245 755 -7.507628 0.953888 1.158 
255 755 -7.592662 1.127967 1.680 
265 755 -7.800331 0.944432 1.976 
275 755 -7.069194 0.842846 2.718 
285 755 -6.889896 0.625989 2.228 
295 755 -7.537892 0.424603 1.684 
305 755 -7.432065 0.191143 2.181 
315 755 -7.615122 0.427727 6.242 
325 755 -7.722879 0.604761 12.991 
335 755 -7.811361 0.897010 20.000 
345 755 -8.074229 0.769580 5.757 
355 755 -7.768265 0.480824 3.613 
365 755 -7.677354 0.533650 5.502 
375 755 -7.684875 0.452044 3.204 
385 755 -7.766422 0.434042 3.478 
395 755 -7.698016 0.209562 1.354 
405 755 -7.512334 0.332756 15.498 
415 755 -7.639385 0.852634 13.171 
425 755 -7.750113 1.197885 11.118 
435 755 -7.667177 1.093174 1.607 
445 755 -8.131662 0.451294 3.346 
455 755 -8.447650 0.187626 7.560 
465 755 -8.514502 0.159463 3.438 
475 755 -8.083717 0.421198 1.737 
485 755 -8.020516 0.186142 2.564 
495 755 -8.149272 -0.073810 1.908 
505 755 -8.258308 -0.126212 1.575 
515 755 -8.031367 0.013684 2.611 
525 755 -8.091616 0.140314 3.823 
535 755 -8.151736 0.053495 4.501 
545 755 -8.311322 -0.171734 1.246 
555 755 -8.299961 -0.189381 1.901 
565 755 -8.265089 -0.169150 4.155 
575 755 -8.243600 -0.176624 2.446 
585 755 -8.170681 -0.197246 2.960 
595 755 -8.699697 -0.414499 9.264 
605 755 -8.631696 -0.360385 3.972 
615 755 -8.122666 -0.184580 2.609 
625 755 -8.097277 -0.572115 2.716 
635 755 -8.343870 -0.779244 2.037 
645 755 -8.238194 -0.537759 2.905 
655 755 -8.142086 -0.140039 3.184 
665 755 -8.178705 -0.007748 2.097 
675 755 -8.376844 0.046853 1.410 
685 755 -8.844622 -0.228433 2.201 
695 755 -8.604614 0.042214 1.963 
705 755 -8.317702 0.129772 2.057 
715 755 -8.048900 -0.131364 2.211 
725 755 -8.080383 -0.277426 1.756 
735 755 -8.362983 -0.169254 1.248 
745 755 -8.517698 -0.170131 1.495 
755 755 -8.504381 -0.662140 3.432 
765 755 -8.387263 -0.740073 5.345 
775 755 -8.320930 -0.560780 15.085 
785 755 -8.333894 -0.379462 2.533 
795 755 -8.360194 -0.285262 4.405 
805 755 -8.473516 -0.224107 6.419 
815 755 -8.444554 -0.205499 2.724 
825 755 -8.192169 -0.215507 2.553 
835 755 -8.445091 0.227876 1.686 
845 755 -8.610470 0.261590 12.724 
855 755 -8.578549 0.136822 4.274 
865 755 -8.353201 -0.025180 4.200 
875 755 -8.707741 -0.443376 2.430 
885 755 -8.818045 -0.679949 8.125 
895 755 -8.582528 -0.798068 5.924 
905 755 -8.629692 -0.487170 1.888 
915 755 -8.721180 -0.028856 1.896 
925 755 -8.827560 -0.182813 2.095 
935 755 -8.687810 -0.606782 7.742 
945 755 -8.201024 -0.489354 5.074 
955 755 -8.121800 -0.387941 4.442 
965 755 -8.307537 -0.483434 2.559 
975 755 -8.137350 -0.831373 2.509 
985 755 -7.905896 -1.017164 2.135 
995 755 -7.896536 -0.749054 2.723 
1005 755 -8.019970 -0.399855 1.629 
1015 755 -8.312091 -0.215833 9.117 
1025 755 -7.901422 -0.230095 2.490 
1035 755 -7.459351 -0.341643 4.158 
1045 755 -7.361361 -0.490908 5.379 
1055 755 -7.319382 -0.500237 4.831 
1065 755 -7.119315 -0.645811 1.823 
1075 755 -6.962251 -0.585252 1.936 
1085 755 -6.750075 -0.406712 1.999 
1095 755 -6.866998 -0.250167 1.790 
1105 755 -7.022799 -0.321502 2.240 
1115 755 -6.230315 -0.677836 1.501 
1125 755 -5.594328 -0.685097 1.260 
1135 755 -6.874274 -0.225819 2.356 
1145 755 -7.397263 -0.490939 4.760 
1155 755 -5.624629 3.712319 1.068 
1165 755 -1.839706 10.981748 1.163 
1175 755 0.867870 10.254482 1.627 
1185 755 3.575446 9.527217 1.466 
1195 755 4.386117 2.526512 1.208 
1205 755 5.544725 0.102308 1.486 
1215 755 6.720352 -1.067146 2.767 
1225 755 7.206977 -1.064520 1.519 
1235 755 7.973609 -2.558771 1.602 
1245 755 7.201617 -1.408848 1.396 
1255 755 6.406419 -0.695643 1.040 
1265 755 4.023813 -0.701067 1.130 
1275 755 1.764607 -0.451165 1.047 
5 745 4.800974 -1.728565 1.378 
15 745 2.809046 -0.381806 1.378 
25 745 0.817118 0.964953 1.065 
35 745 -1.431728 7.118271 1.070 
45 745 -1.363299 9.215391 1.357 
55 745 -0.562818 8.619048 1.829 
65 745 -2.491994 8.448157 1.629 
75 745 -3.756565 4.057705 1.009 
85 745 -6.485918 -3.172582 1.141 
95 745 -7.561965 -6.873361 1.087 
105 745 -6.903334 -5.424440 1.140 
115 745 -5.506445 -3.725882 1.169 
125 745 -1.520937 -2.065619 1.153 
135 745 -3.055072 0.737962 1.020 
145 745 -6.868277 1.445862 1.198 
155 745 -7.572765 0.649694 1.140 
165 745 -7.212754 0.402942 1.021 
175 745 -6.881886 0.866122 1.757 
185 745 -6.790870 1.182580 2.033 
195 745 -6.832404 1.426791 2.803 
205 745 -7.185846 1.361292 2.348 
215 745 -7.063997 0.816873 1.610 
225 745 -7.138753 0.193565 2.145 
235 745 -7.283489 -0.030773 1.545 
245 745 -7.460253 0.457539 1.728 
255 745 -7.638102 0.853859 1.307 
265 745 -7.899490 0.905574 1.132 
275 745 -7.619384 1.003201 1.488 
285 745 -7.920264 0.573970 4.382 
295 745 -7.942095 0.611563 4.845 
305 745 -7.467495 0.656412 2.801 
315 745 -7.535661 0.670688 3.784 
325 745 -7.635089 0.707169 2.516 
335 745 -7.798798 1.017547 4.501 
345 745 -7.940076 0.689125 4.261 
355 745 -7.818269 0.614704 2.342 
365 745 -7.782231 0.518543 3.835 
375 745 -7.738999 0.398380 5.893 
385 745 -7.829647 0.499553 2.739 
395 745 -7.823499 0.406547 2.420 
405 745 -7.790451 0.219162 8.685 
415 745 -7.854828 0.583628 18.442 
425 745 -7.820107 0.856280 1.781 
435 745 -7.817032 0.786532 2.726 
445 745 -8.036423 0.438836 2.808 
455 745 -8.233596 0.072771 3.708 
465 745 -8.345699 -0.176859 3.318 
475 745 -8.094468 0.072497 3.602 
485 745 -8.056386 0.077517 5.034 
495 745 -8.213678 0.067340 1.936 
505 745 -8.298663 0.090999 1.857 
515 745 -8.105015 -0.099735 1.990 
525 745 -8.104151 0.117193 1.591 
535 745 -8.251427 0.097653 20.000 
545 745 -8.287317 -0.041253 1.198 
555 745 -8.188198 -0.051512 1.646 
565 745 -8.133734 -0.050489 5.946 
575 745 -8.157991 -0.147535 2.604 
585 745 -8.333359 -0.056262 2.488 
595 745 -8.858016 -0.318083 7.500 
605 745 -8.956824 -0.336387 17.653 
615 745 -8.469569 -0.234731 6.285 
625 745 -8.386966 -0.518078 4.735 
635 745 -8.486352 -0.799252 2.056 
645 745 -8.417281 -0.579802 2.003 
655 745 -8.268591 -0.127423 1.811 
665 745 -8.010850 0.171402 1.787 
675 745 -8.112146 0.315488 1.579 
685 745 -8.406227 0.207789 2.768 
695 745 -8.246743 0.309730 3.441 
705 745 -7.942341 0.295472 1.346 
715 745 -7.942016 0.020737 1.425 
725 745 -8.043028 -0.151772 1.050 
735 745 -8.470744 0.115342 2.250 
745 745 -8.500196 0.140007 1.100 
755 745 -8.644429 -0.488590 5.882 
765 745 -8.463361 -0.515863 27.701 
775 745 -8.367505 -0.389639 7.972 
785 745 -8.307735 -0.336292 2.102 
795 745 -8.171010 -0.348599 1.388 
805 745 -8.198120 -0.333686 2.823 
815 745 -8.179099 -0.324104 1.765 
825 745 -8.192022 -0.245838 2.800 
835 745 -8.167241 0.165284 2.971 
845 745 -8.064494 0.093683 2.281 
855 745 -8.175959 -0.147190 1.790 
865 745 -8.297089 -0.274932 1.830 
875 745 -8.484209 -0.495561 3.463 
885 745 -8.553037 -0.805114 3.051 
895 745 -8.480255 -0.802277 2.892 
905 745 -8.513662 -0.414262 4.076 
915 745 -8.791585 0.184488 5.019 
925 745 -8.772588 -0.306619 2.522 
935 745 -8.848574 -0.558338 11.295 
945 745 -8.728589 -0.499686 2.305 
955 745 -8.900576 -0.372073 4.089 
965 745 -8.935491 -0.554239 2.099 
975 745 -8.430699 -0.935146 3.049 
985 745 -8.272607 -1.035285 3.060 
995 745 -8.220844 -0.926754 2.325 
1005 745 -8.237806 -0.742696 3.117 
1015 745 -8.160467 -0.659702 20.000 
1025 745 -8.141304 -0.673768 3.059 
1035 745 -7.778129 -0.725284 2.977 
1045 745 -7.530695 -0.830718 3.069 
1055 745 -7.440885 -0.683917 3.720 
1065 745 -7.288112 -0.502854 8.136 
1075 745 -6.898862 -0.299839 2.129 
1085 745 -6.548911 0.044685 2.435 
1095 745 -6.223688 0.406112 1.656 
1105 745 -6.492178 0.350519 2.957 
1115 745 -6.359231 -0.017767 1.685 
1125 745 -6.577937 -0.201496 1.006 
1135 745 -7.759125 0.059136 1.322 
1145 745 -8.542534 -0.173632 3.560 
1155 745 -6.796679 0.928725 2.538 
1165 745 -2.924040 9.141017 1.258 
1175 745 -0.399750 8.663528 1.488 
1185 745 2.124541 8.186039 1.619 
1195 745 2.483129 2.266310 1.346 
1205 745 4.450535 0.559884 1.028 
1215 745 7.169284 -2.417517 1.240 
1225 745 7.394502 -1.877956 1.440 
1235 745 6.181504 -2.725173 1.447 
1245 745 4.224811 -2.702789 1.072 
1255 745 2.171829 -1.332944 1.411 
1265 745 -1.229778 -0.631907 1.328 
1275 745 -3.421027 -0.657331 1.317 
5 735 5.102723 -5.909466 1.014 
15 735 4.269458 -1.680354 1.014 
25 735 0.786842 3.609102 1.119 
35 735 -1.222723 7.445269 1.521 
45 735 -0.652678 9.363183 1.722 
55 735 -0.199308 8.719088 1.479 
65 735 -4.376303 3.696516 1.616 
75 735 -5.951752 -2.535025 1.348 
85 735 -7.416331 -9.105802 1.455 
95 735 -7.667167 -7.280361 1.080 
105 735 -7.492234 -6.024632 1.365 
115 735 -5.875393 -5.126037 1.324 
125 735 -3.503811 -3.031664 1.085 
135 735 -5.088311 0.081642 1.015 
145 735 -8.196258 0.789272 1.031 
155 735 -7.492640 0.755481 1.099 
165 735 -6.789023 0.721690 1.105 
175 735 -7.001444 0.688896 1.503 
185 735 -7.142778 0.770236 1.095 
195 735 -7.161810 1.382136 1.406 
205 735 -7.362123 1.331213 1.795 
215 735 -6.981233 1.094870 1.940 
225 735 -6.953300 0.254437 2.564 
235 735 -7.353195 -0.199658 1.383 
245 735 -7.489452 0.003507 1.403 
255 735 -7.589735 0.492729 1.148 
265 735 -7.800795 0.769305 1.218 
275 735 -8.166884 0.861531 1.111 
285 735 -8.077341 0.625285 3.852 
295 735 -7.745557 0.718277 3.687 
305 735 -7.181025 0.937205 2.580 
315 735 -7.271924 0.697616 2.176 
325 735 -7.506631 0.519733 1.144 
335 735 -7.375250 0.744742 1.656 
345 735 -7.709092 0.593563 3.674 
355 735 -7.874265 0.487389 1.943 
365 735 -7.783596 0.437515 3.385 
375 735 -7.670591 0.321641 1.853 
385 735 -7.665545 0.476954 2.248 
395 735 -7.790380 0.548309 2.554 
405 735 -7.863793 0.181802 1.599 
415 735 -7.830576 0.357699 3.387 
425 735 -7.678215 0.715254 2.371 
435 735 -7.705062 0.872475 2.303 
445 735 -7.981096 0.556612 2.336 
455 735 -8.019541 -0.042084 2.153 
465 735 -8.128909 -0.297456 1.537 
475 735 -8.082982 -0.017237 2.450 
485 735 -8.137557 0.110064 2.874 
495 735 -8.309616 0.247564 5.476 
505 735 -8.278637 0.265945 3.569 
515 735 -8.102548 -0.137650 2.270 
525 735 -8.050952 -0.019027 1.824 
535 735 -8.259546 0.156015 1.702 
545 735 -8.276798 0.003710 3.121 
555 735 -8.221060 0.048567 3.186 
565 735 -8.280385 0.122767 2.846 
575 735 -8.477864 0.096037 3.603 
585 735 -8.376597 0.134489 1.967 
595 735 -8.523282 -0.054486 4.010 
605 735 -8.710989 -0.071352 2.519 
615 735 -8.654994 0.314500 3.182 
625 735 -8.604819 -0.085052 5.513 
635 735 -8.499993 -0.566945 2.439 
645 735 -8.443049 -0.398656 2.038 
655 735 -8.362740 -0.068683 2.063 
665 735 -8.130553 0.081814 1.279 
675 735 -8.053018 0.196240 1.897 
685 735 -8.165329 0.343095 1.481 
695 735 -8.118840 0.366505 1.574 
705 735 -8.412877 0.382170 1.429 
715 735 -8.640518 -0.124839 1.790 
725 735 -8.681778 -0.299089 2.202 
735 735 -8.917867 -0.145106 1.519 
745 735 -8.939931 -0.093655 3.923 
755 735 -8.877859 -0.031359 1.205 
765 735 -8.453506 -0.134318 2.531 
775 735 -8.355246 -0.076363 2.280 
785 735 -8.203302 -0.275824 2.432 
795 735 -7.941664 -0.315888 1.721 
805 735 -7.833894 -0.397498 3.127 
815 735 -7.925175 -0.453154 2.542 
825 735 -8.145338 -0.249499 3.070 
835 735 -8.136333 -0.102632 3.898 
845 735 -7.977868 -0.070934 2.509 
855 735 -8.114275 -0.347524 1.564 
865 735 -8.395977 -0.422505 1.905 
875 735 -8.454827 -0.544183 4.027 
885 735 -8.361983 -0.839995 4.206 
895 735 -8.289875 -0.945484 2.447 
905 735 -8.618554 -0.753031 3.202 
915 735 -8.874563 0.124942 2.123 
925 735 -8.779016 -0.115235 1.717 
935 735 -8.919207 -0.380095 2.813 
945 735 -8.922141 -0.354822 1.922 
955 735 -9.066839 -0.316811 1.966 
965 735 -9.269681 -0.547683 1.798 
975 735 -9.379629 -0.715585 1.791 