TITLE = "B00051"
VARIABLES = "x", "y", "u", "v", "sn"
ZONE T="Frame 0", I=128, J=80
5 795 0.000000 -0.000000 1.184 
15 795 -1.878934 9.686984 1.184 
25 795 -1.490448 11.800135 1.273 
35 795 -2.489016 12.952738 1.452 
45 795 -3.487585 14.105341 1.020 
55 795 -4.486154 15.257943 1.035 
65 795 -6.303874 13.350927 1.049 
75 795 -8.121594 11.443910 1.345 
85 795 -6.907137 19.109922 1.129 
95 795 -5.692679 26.775933 1.000 
105 795 -4.478221 34.441944 1.094 
115 795 -10.168770 25.639296 1.561 
125 795 -11.334762 19.131401 1.119 
135 795 -12.500753 12.623505 1.079 
145 795 -11.298627 9.406042 1.086 
155 795 -10.096502 6.188580 1.352 
165 795 -8.894376 2.971117 1.995 
175 795 -5.722200 3.326039 1.456 
185 795 -2.686813 6.635419 1.240 
195 795 1.235560 10.595937 1.173 
205 795 2.744537 9.314742 1.018 
215 795 4.253513 8.033548 1.058 
225 795 5.762490 6.752353 1.035 
235 795 -2.033102 2.988032 1.099 
245 795 -5.917043 0.543443 1.198 
255 795 -5.795410 1.350643 1.777 
265 795 -4.917279 1.826354 2.492 
275 795 -4.775985 1.680965 1.712 
285 795 -4.634692 1.535576 1.655 
295 795 -4.493398 1.390186 1.005 
305 795 -4.352105 1.244797 1.217 
315 795 -4.210811 1.099407 1.079 
325 795 -4.313035 0.972459 1.454 
335 795 -4.415259 0.845511 1.122 
345 795 -4.517483 0.718563 2.032 
355 795 -3.848476 1.122286 5.647 
365 795 -3.804051 1.550502 4.484 
375 795 -4.691867 1.437473 2.546 
385 795 -5.579682 1.324444 1.371 
395 795 -5.246183 1.118753 2.256 
405 795 -4.746621 1.410543 1.027 
415 795 -4.472089 1.973048 1.029 
425 795 -4.766871 2.457355 2.337 
435 795 -4.635522 2.465644 2.072 
445 795 -4.062280 2.708250 1.296 
455 795 -4.008956 2.774255 1.243 
465 795 -3.955632 2.840261 6.186 
475 795 -4.648318 1.725233 2.569 
485 795 -5.112742 1.095500 3.278 
495 795 -5.575093 0.946681 3.069 
505 795 -5.849545 0.958253 1.873 
515 795 -5.646718 0.598963 1.779 
525 795 -5.400973 0.132520 1.520 
535 795 -5.344565 0.152197 2.946 
545 795 -5.288157 0.171874 1.505 
555 795 -5.697676 -0.221219 1.186 
565 795 -5.556706 -0.299367 2.123 
575 795 -5.434469 0.441545 3.502 
585 795 -5.487665 0.631668 2.609 
595 795 -5.702975 -0.344543 1.869 
605 795 -5.789537 -0.709990 2.345 
615 795 -5.945982 -0.738810 1.399 
625 795 -6.019529 -0.637222 1.167 
635 795 -5.624675 -0.628989 1.618 
645 795 -5.122511 -0.659966 1.669 
655 795 -5.254703 -0.557843 1.396 
665 795 -5.437241 -0.537482 2.020 
675 795 -5.292627 -1.180983 4.535 
685 795 -5.421355 -1.129414 2.230 
695 795 -5.550083 -1.077844 2.748 
705 795 -5.529566 -0.245849 3.118 
715 795 -5.625545 -0.312331 12.663 
725 795 -5.215577 -0.180882 3.568 
735 795 -4.710113 -0.074632 2.819 
745 795 -4.530910 -0.025592 1.085 
755 795 -4.518763 -0.082639 1.117 
765 795 -4.510772 -0.265483 1.596 
775 795 -4.546264 -0.506933 1.901 
785 795 -4.097269 -1.110089 1.405 
795 795 -3.637843 -0.771156 1.687 
805 795 -3.178416 -0.432223 1.003 
815 795 -3.800714 -0.375144 1.388 
825 795 -4.423012 -0.318065 1.405 
835 795 -4.120191 -1.575589 7.409 
845 795 -4.201812 -2.164224 1.241 
855 795 -5.343789 -0.554389 1.253 
865 795 -6.871503 1.910575 1.008 
875 795 -8.695352 5.790948 6.851 
885 795 -8.290819 5.487287 1.310 
895 795 -4.718699 -1.297354 1.745 
905 795 -4.793112 -1.209106 2.257 
915 795 -4.867525 -1.120858 1.214 
925 795 -4.889170 -0.867893 2.251 
935 795 -4.910815 -0.614928 1.499 
945 795 -4.969586 -0.757716 1.042 
955 795 -4.204449 -0.425944 1.016 
965 795 -1.254442 0.738537 1.058 
975 795 -1.830450 0.138320 1.228 
985 795 -2.406459 -0.461897 1.155 
995 795 -3.609413 -1.881179 1.201 
1005 795 -3.338275 -2.104188 1.206 
1015 795 -3.067137 -2.327197 1.049 
1025 795 -2.834750 -1.612029 1.708 
1035 795 -3.108631 -1.092348 2.300 
1045 795 -3.208184 -0.819969 1.872 
1055 795 -3.176206 -0.348207 3.824 
1065 795 -3.233909 0.016045 8.514 
1075 795 -3.644969 0.155894 3.887 
1085 795 -3.909563 0.084869 1.460 
1095 795 -3.956000 -0.082795 1.407 
1105 795 -2.856844 -0.012973 1.245 
1115 795 -0.712688 0.378043 1.266 
1125 795 -1.170821 0.777462 1.287 
1135 795 -1.628955 1.176881 1.163 
1145 795 -1.926901 -0.088775 1.578 
1155 795 -2.224847 -1.354431 1.228 
1165 795 -0.426298 1.540335 1.088 
1175 795 1.372251 4.435102 1.014 
1185 795 3.170799 7.329868 1.301 
1195 795 2.184809 7.325984 1.369 
1205 795 0.283634 -1.470774 1.016 
1215 795 -1.617540 -10.267532 1.372 
1225 795 -2.324219 -9.989418 1.246 
1235 795 -3.030898 -9.711305 1.467 
1245 795 -3.737578 -9.433191 1.788 
1255 795 0.000000 -0.000000 1.037 
1265 795 0.000000 -0.000000 1.464 
1275 795 0.000000 -0.000000 1.549 
5 785 -2.525570 9.287273 1.184 
15 785 0.702890 14.474914 1.184 
25 785 3.811057 18.031414 1.273 
35 785 5.524729 20.009513 1.452 
45 785 5.485282 19.043208 1.020 
55 785 -3.191448 17.571773 1.035 
65 785 -0.702487 13.421887 1.049 
75 785 -3.545027 12.712141 1.345 
85 785 -3.668169 24.197785 1.129 
95 785 -2.722237 30.677289 1.000 
105 785 -1.917537 31.437018 1.094 
115 785 -7.057086 25.804294 1.561 
125 785 -10.698886 22.577440 1.119 
135 785 -11.243335 12.680719 1.079 
145 785 -10.377219 3.002830 1.086 
155 785 -9.992589 2.645161 1.352 
165 785 -8.490235 2.246343 1.995 
175 785 -6.443231 2.859699 1.456 
185 785 -4.337012 6.358014 1.240 
195 785 -0.799063 9.950007 1.173 
205 785 3.083560 11.747987 1.018 
215 785 4.000022 9.205443 1.058 
225 785 4.916484 6.662899 1.035 
235 785 -3.415794 2.463240 1.099 
245 785 -5.940531 0.896081 1.198 
255 785 -5.853914 1.163414 1.777 
265 785 -5.013808 1.631806 2.492 
275 785 -4.219791 1.222191 1.712 
285 785 -4.041970 0.855683 1.655 
295 785 -2.443983 0.778511 1.005 
305 785 -0.541888 0.902577 1.217 
315 785 -1.694295 0.321829 1.079 
325 785 -3.752275 -0.720703 1.454 
335 785 -4.762539 -0.169328 1.122 
345 785 -4.231662 0.420612 2.032 
355 785 -3.748123 1.041488 5.647 
365 785 -3.806833 1.514070 4.484 
375 785 -4.625404 1.425800 2.546 
385 785 -5.443974 1.337531 1.371 
395 785 -5.024786 1.219647 2.256 
405 785 -4.977473 1.339005 1.027 
415 785 -4.830681 1.870016 1.029 
425 785 -5.076175 2.439436 2.337 
435 785 -4.962791 2.557629 2.072 
445 785 -4.461896 2.861542 1.296 
455 785 -3.990880 2.985423 1.243 
465 785 -4.305279 2.904320 6.186 
475 785 -5.024112 1.785033 2.569 
485 785 -5.423424 1.127453 3.278 
495 785 -5.678374 0.886993 3.069 
505 785 -5.890492 0.988352 1.873 
515 785 -5.689791 0.628122 1.779 
525 785 -5.458833 0.120586 1.520 
535 785 -5.118334 0.263677 2.946 
545 785 -5.340656 0.091965 1.505 
555 785 -5.662453 -0.280670 1.186 
565 785 -5.536321 -0.481395 2.123 
575 785 -5.431814 0.338844 3.502 
585 785 -5.473351 0.720727 2.609 
595 785 -5.676486 -0.101078 1.869 
605 785 -5.835201 -0.605960 2.345 
615 785 -6.008982 -0.729229 1.399 
625 785 -6.054552 -0.613407 1.167 
635 785 -5.685712 -0.572220 1.618 
645 785 -5.197140 -0.542086 1.669 
655 785 -5.275169 -0.507920 1.396 
665 785 -5.408368 -0.510753 2.020 
675 785 -5.305125 -1.138594 4.535 
685 785 -5.370919 -1.074402 2.230 
695 785 -5.436712 -1.010209 2.748 
705 785 -5.503849 -0.575110 3.118 
715 785 -5.484611 -0.231710 12.663 
725 785 -5.130493 -0.023241 3.568 
735 785 -4.638787 0.025291 2.819 
745 785 -4.553520 0.035640 1.085 
755 785 -4.646929 -0.023421 1.117 
765 785 -4.440856 0.229636 1.596 
775 785 -4.559393 -0.258093 1.901 
785 785 -4.197988 -0.912804 1.405 
795 785 -3.263222 -0.828583 1.687 
805 785 -3.668981 -0.437375 1.003 
815 785 -4.035437 -0.281544 1.388 
825 785 -4.401892 -0.125712 1.405 
835 785 -4.200283 -1.281114 7.409 
845 785 -4.744263 -0.913006 1.241 
855 785 -5.288242 -0.544897 1.253 
865 785 -6.754245 1.759379 1.008 
875 785 -8.215229 4.976548 6.851 
885 785 -7.849164 4.731899 1.310 
895 785 -4.608780 -1.475961 1.745 
905 785 -3.990789 -1.980471 2.257 
915 785 -4.733365 -0.990708 1.214 
925 785 -5.242654 -0.542331 2.251 
935 785 -4.802782 -0.483601 1.499 
945 785 -4.908428 -0.536201 1.042 
955 785 -4.284537 -0.308991 1.016 
965 785 -2.441963 0.632492 1.058 
975 785 -2.588072 0.079111 1.228 
985 785 -2.734182 -0.474270 1.155 
995 785 -3.642944 -1.700652 1.201 
1005 785 -3.381040 -1.884247 1.206 
1015 785 -3.119136 -2.067842 1.049 
1025 785 -2.992348 -1.415325 1.708 
1035 785 -3.171713 -0.973007 2.300 
1045 785 -3.202996 -0.777464 1.872 
1055 785 -3.092394 -0.443194 3.824 
1065 785 -3.178684 -0.108617 8.514 
1075 785 -3.503929 0.053585 3.887 
1085 785 -3.602516 0.110900 1.460 
1095 785 -3.520377 0.091731 1.407 
1105 785 -2.695300 0.289858 1.245 
1115 785 -0.590625 0.765037 1.266 
1125 785 -0.953940 1.006094 1.287 
1135 785 -1.317255 1.247152 1.163 
1145 785 -1.113176 0.326273 1.578 
1155 785 -0.909097 -0.594606 1.228 
1165 785 2.757439 -1.158124 1.088 
1175 785 2.805298 2.063978 1.014 
1185 785 2.853156 5.286080 1.301 
1195 785 -0.255040 3.785135 1.369 
1205 785 -0.760565 -8.144531 1.016 
1215 785 -6.595992 -6.325393 1.372 
1225 785 -10.524677 -10.593952 1.246 
1235 785 -11.904266 -10.089543 1.467 
1245 785 -9.519047 -10.365900 1.788 
1255 785 -5.930093 -10.925522 1.037 
1265 785 1.861887 -9.939692 1.464 
1275 785 4.968072 -7.339589 1.549 
5 775 -1.599859 10.006221 1.212 
15 775 2.092083 16.125885 1.212 
25 775 5.719913 20.757314 1.509 
35 775 6.898124 21.073382 1.012 
45 775 8.157170 21.933835 1.177 
55 775 -1.896742 19.885603 1.193 
65 775 -1.971535 16.013805 1.150 
75 775 1.003684 14.362572 1.728 
85 775 0.670714 16.911953 2.264 
95 775 1.612770 23.305808 1.206 
105 775 0.643148 28.432091 1.131 
115 775 -3.938464 24.046579 1.326 
125 775 -7.115511 20.016792 1.721 
135 775 -9.492923 14.465806 1.152 
145 775 -8.350627 5.316494 1.101 
155 775 -8.886184 2.676019 2.088 
165 775 -8.086094 1.521569 1.985 
175 775 -6.931795 1.799990 1.798 
185 775 -6.688333 3.896695 1.209 
195 775 -6.444871 5.993399 1.265 
205 775 -1.053268 8.422641 1.572 
215 775 1.855442 6.086526 1.153 
225 775 0.233248 4.047120 1.909 
235 775 -6.222088 1.454009 1.575 
245 775 -6.226770 1.181926 2.176 
255 775 -5.391476 1.478944 1.932 
265 775 -5.006695 1.218270 5.648 
275 775 -4.603437 0.871204 2.419 
285 775 -3.916515 0.806630 2.368 
295 775 -2.353134 1.127863 1.036 
305 775 -0.532618 0.449301 1.095 
315 775 -0.037737 1.320410 1.073 
325 775 -3.384676 -0.638366 2.028 
335 775 -3.480540 -0.608366 2.264 
345 775 -3.879862 0.131356 8.730 
355 775 -3.530234 0.973906 9.396 
365 775 -3.628054 1.518252 20.000 
375 775 -4.061397 1.904754 2.853 
385 775 -4.916370 1.481054 2.103 
395 775 -4.803389 1.320542 2.095 
405 775 -4.987560 1.345688 1.197 
415 775 -5.404590 1.797605 2.705 
425 775 -5.557515 2.246023 1.350 
435 775 -5.764821 2.471070 2.047 
445 775 -5.175483 2.861827 2.336 
455 775 -4.737855 3.157973 1.863 
465 775 -4.962975 2.740027 1.502 
475 775 -5.587889 1.751948 1.200 
485 775 -6.003132 0.585024 2.845 
495 775 -6.146299 0.664471 3.168 
505 775 -5.570861 0.919324 2.094 
515 775 -5.523280 0.884744 1.003 
525 775 -5.512619 0.062901 1.345 
535 775 -5.218874 0.120388 2.549 
545 775 -5.347613 -0.167539 2.409 
555 775 -5.484148 -0.550355 2.998 
565 775 -5.392686 -0.722934 2.684 
575 775 -5.234144 0.288029 2.797 
585 775 -5.240788 1.081407 3.655 
595 775 -5.402068 0.519017 1.461 
605 775 -5.792638 -0.075084 1.131 
615 775 -6.211314 -0.390069 1.301 
625 775 -6.307237 -0.664489 1.563 
635 775 -6.048755 -0.529580 1.120 
645 775 -5.336841 -0.423713 1.077 
655 775 -5.195058 -0.162784 1.010 
665 775 -5.399024 -0.423521 3.693 
675 775 -5.282029 -1.160602 14.042 
685 775 -5.276585 -1.449775 2.700 
695 775 -5.323385 -1.166619 1.584 
705 775 -5.316894 -0.612780 2.189 
715 775 -5.269161 -0.143568 23.290 
725 775 -5.011174 0.078245 3.525 
735 775 -4.528008 0.122149 2.105 
745 775 -4.467299 0.159269 1.102 
755 775 -4.482573 0.356954 1.254 
765 775 -4.370940 0.724754 1.893 
775 775 -4.924893 0.164737 1.853 
785 775 -4.874060 0.076551 1.470 
795 775 -4.806943 -0.241921 1.968 
805 775 -4.859154 -0.513612 2.519 
815 775 -4.739803 0.151421 2.482 
825 775 -4.583448 0.102716 1.787 
835 775 -4.523785 -0.702751 1.864 
845 775 -4.711122 -0.902471 1.936 
855 775 -5.067461 -1.026579 3.106 
865 775 -5.578766 -0.801934 1.061 
875 775 -6.553709 2.225600 1.547 
885 775 -6.169140 1.676873 1.016 
895 775 -4.353995 -1.669840 2.096 
905 775 -3.720129 -1.898293 2.044 
915 775 -3.980439 -0.700312 1.027 
925 775 -4.247721 -0.379460 2.192 
935 775 -3.947664 -0.380103 4.003 
945 775 -4.252156 -0.489281 4.102 
955 775 -4.406918 -0.220162 1.021 
965 775 -3.666376 0.537093 1.198 
975 775 -2.932536 -0.076368 1.494 
985 775 -2.880457 -0.381837 1.640 
995 775 -3.533618 -1.233121 1.182 
1005 775 -3.817568 -1.590874 1.479 
1015 775 -3.288807 -0.834577 1.012 
1025 775 -3.386273 -0.673866 2.130 
1035 775 -3.520332 -0.820674 2.248 
1045 775 -3.107866 -0.959485 2.689 
1055 775 -2.951517 -1.024194 1.275 
1065 775 -2.885084 -0.661503 2.203 
1075 775 -3.090779 -0.343882 1.670 
1085 775 -3.103425 -0.101100 10.247 
1095 775 -3.168457 0.058923 14.998 
1105 775 -2.616636 0.298426 4.645 
1115 775 -1.073951 0.828769 1.004 
1125 775 -0.945871 0.947478 1.005 
1135 775 -0.817792 1.066186 1.144 
1145 775 -0.544584 1.852352 1.048 
1155 775 1.170021 1.558691 1.055 
1165 775 3.341390 0.840990 1.098 
1175 775 2.110645 0.048660 1.290 
1185 775 0.466968 1.010743 1.476 
1195 775 -3.018550 2.527186 1.057 
1205 775 -5.189821 -2.847979 1.169 
1215 775 -11.194886 -1.660167 1.572 
1225 775 -14.240494 -3.124195 1.075 
1235 775 -16.710108 -4.036981 1.127 
1245 775 -14.665023 -7.294933 1.203 
1255 775 -10.535255 -9.714120 1.083 
1265 775 -3.939981 -11.256835 1.456 
1275 775 -0.279022 -8.693797 1.214 
5 765 -0.674149 10.725169 1.184 
15 765 1.463689 16.913527 1.184 
25 765 7.389939 20.877814 1.253 
35 765 8.271518 22.137250 1.067 
45 765 8.028507 20.898573 1.044 
55 765 -0.798038 18.389975 1.187 
65 765 -0.047483 12.371379 1.130 
75 765 0.997925 11.167477 1.231 
85 765 1.650172 11.873968 1.157 
95 765 2.207589 16.141059 1.160 
105 765 1.055832 19.346286 1.988 
115 765 -1.671029 19.997025 1.944 
125 765 -4.965402 16.680347 1.146 
135 765 -7.402159 11.890037 1.104 
145 765 -7.103862 4.650150 1.012 
155 765 -8.244142 3.124376 2.885 
165 765 -7.560299 1.796055 2.349 
175 765 -7.049713 1.540906 1.920 
185 765 -7.440233 1.615924 1.069 
195 765 -7.830753 1.690943 1.183 
205 765 0.547481 4.670831 1.224 
215 765 -3.716522 1.489274 1.322 
225 765 -4.449987 1.431342 2.081 
235 765 -6.690960 1.314777 1.138 
245 765 -6.697697 1.566482 1.227 
255 765 -5.838830 1.848602 2.256 
265 765 -5.611130 1.670445 5.969 
275 765 -5.539557 1.361966 1.942 
285 765 -5.134746 1.509298 1.950 
295 765 -3.376869 1.847607 1.090 
305 765 -1.373575 1.459023 1.062 
315 765 1.618821 2.318990 1.146 
325 765 -3.017077 -0.556028 1.211 
335 765 -4.248196 -0.506983 1.426 
345 765 -3.889755 -0.115678 3.675 
355 765 -3.729543 0.765694 6.417 
365 765 -3.849574 1.407793 3.037 
375 765 -3.955407 1.983323 5.626 
385 765 -4.117639 1.883462 5.354 
395 765 -4.513538 1.439195 1.140 
405 765 -5.363541 1.362549 1.163 
415 765 -6.077637 1.736707 6.506 
425 765 -6.189378 1.967022 5.332 
435 765 -6.072162 2.623287 2.779 
445 765 -5.715238 3.175486 1.822 
455 765 -5.322879 3.296051 1.264 
465 765 -5.286253 2.761329 1.102 
475 765 -6.058453 1.656128 1.525 
485 765 -6.111946 0.686240 3.534 
495 765 -6.003691 0.456111 2.286 
505 765 -5.316424 1.090357 1.756 
515 765 -5.341821 1.105948 1.380 
525 765 -5.440000 0.482019 1.291 
535 765 -5.528129 0.143233 1.525 
545 765 -5.804097 -0.507159 1.696 
555 765 -5.449651 -1.118212 4.987 
565 765 -5.171238 -1.099799 4.292 
575 765 -4.925555 -0.093698 4.375 
585 765 -4.882065 1.482832 11.868 
595 765 -5.096708 1.519707 4.200 
605 765 -5.397965 0.506415 1.220 
615 765 -5.680195 -0.444138 1.544 
625 765 -5.889055 -0.752374 2.979 
635 765 -5.846012 -0.447407 3.369 
645 765 -5.449152 -0.279438 1.099 
655 765 -5.013423 -0.041701 1.354 
665 765 -4.986797 -0.148559 1.312 
675 765 -5.165293 -0.978068 3.377 
685 765 -5.079625 -1.296378 3.117 
695 765 -4.982188 -0.965505 1.604 
705 765 -4.872161 -0.261864 1.555 
715 765 -5.013889 0.088279 7.446 
725 765 -4.789476 0.215781 3.608 
735 765 -4.463656 0.262668 2.265 
745 765 -4.308416 0.247640 3.112 
755 765 -4.214252 0.654492 5.053 
765 765 -4.280686 0.630543 2.971 
775 765 -4.975407 0.590184 1.480 
785 765 -4.848870 -0.119328 1.696 
795 765 -4.821436 -0.436635 2.856 
805 765 -4.875948 -0.656123 2.207 
815 765 -4.548081 -0.091448 3.693 
825 765 -4.489252 0.339250 3.467 
835 765 -4.847286 -0.124388 3.832 
845 765 -4.865621 -0.399719 3.840 
855 765 -4.849528 -0.523661 5.318 
865 765 -4.745095 -0.638812 1.730 
875 765 -4.892188 -0.525348 1.074 
885 765 -4.489116 -1.378153 1.666 
895 765 -4.322817 -1.483601 2.357 
905 765 -4.026338 -1.355911 1.454 
915 765 -3.790320 -0.668982 1.378 
925 765 -4.053354 -0.351435 1.234 
935 765 -3.827955 -0.207055 2.001 
945 765 -4.117437 0.002776 2.976 
955 765 -4.001848 0.167568 1.281 
965 765 -3.557861 0.375799 1.430 
975 765 -2.933312 0.101099 1.547 
985 765 -3.030539 -0.389682 1.886 
995 765 -3.390574 -0.539778 2.518 
1005 765 -3.420602 -0.696625 2.936 
1015 765 -3.601274 -0.602915 1.361 
1025 765 -3.651741 -0.675267 1.141 
1035 765 -3.646589 -0.791200 1.338 
1045 765 -2.848106 -1.419967 1.673 
1055 765 -2.785481 -1.167636 2.466 
1065 765 -2.693247 -1.216590 5.226 
1075 765 -2.705718 -0.906192 2.442 
1085 765 -2.866970 -0.402830 19.974 
1095 765 -2.982532 -0.099535 7.753 
1105 765 -2.695460 0.191009 2.653 
1115 765 -2.106879 0.621664 1.336 
1125 765 -0.905621 0.479057 1.224 
1135 765 -0.533568 1.268445 1.686 
1145 765 0.636851 1.799040 1.476 
1155 765 2.017550 1.817057 1.081 
1165 765 3.064343 2.146752 1.053 
1175 765 0.754710 0.792682 1.411 
1185 765 -2.652702 0.712042 2.517 
1195 765 -5.782061 1.269236 1.743 
1205 765 -8.776123 0.820685 1.258 
1215 765 -11.770185 0.372134 1.094 
1225 765 -16.051556 0.058298 1.513 
1235 765 -18.910351 0.440596 1.228 
1245 765 -18.340273 -2.725871 1.000 
1255 765 -14.150553 -7.007735 1.108 
1265 765 -9.696923 -10.703413 1.098 
1275 765 -6.877428 -9.618189 1.077 
5 755 0.251561 11.444117 1.108 
15 755 0.835295 17.701168 1.108 
25 755 0.897859 22.774790 1.452 
35 755 4.834026 22.969459 1.076 
45 755 5.572580 19.907957 1.035 
55 755 4.959949 15.300094 1.014 
65 755 1.876569 8.728953 1.346 
75 755 3.966623 7.495465 1.004 
85 755 3.645952 6.246270 1.322 
95 755 2.555279 9.931516 1.109 
105 755 2.052497 14.119855 2.175 
115 755 -0.713555 15.691756 2.039 
125 755 -3.938731 13.105431 1.121 
135 755 -6.373809 8.668492 1.468 
145 755 -6.782077 3.539943 1.332 
155 755 -7.223925 1.750670 2.361 
165 755 -6.731606 1.713702 1.974 
175 755 -7.167632 1.281822 1.062 
185 755 -5.569144 1.028385 1.170 
195 755 -3.970656 0.774948 1.074 
205 755 2.148230 0.919022 1.877 
215 755 -0.992782 0.465408 1.281 
225 755 -5.771282 0.397536 1.396 
235 755 -7.626259 0.928179 2.848 
245 755 -7.928417 2.250527 2.119 
255 755 -7.416774 2.238716 1.778 
265 755 -6.943243 2.169818 1.854 
275 755 -7.351866 1.950870 1.376 
285 755 -6.558257 2.411730 2.037 
295 755 -5.148648 2.665752 1.040 
305 755 -3.857585 2.736190 1.065 
315 755 0.702296 4.750855 1.045 
325 755 -2.156778 2.172627 1.027 
335 755 -5.015851 -0.405601 1.489 
345 755 -4.451493 0.255140 1.170 
355 755 -4.434810 0.957990 1.949 
365 755 -4.667006 1.414539 2.011 
375 755 -4.516881 1.765470 14.001 
385 755 -4.409833 1.617520 6.199 
395 755 -4.824275 1.106155 1.451 
405 755 -5.725516 0.874379 1.538 
415 755 -6.487784 1.128948 1.280 
425 755 -6.257734 1.840103 2.832 
435 755 -5.790885 2.589466 1.219 
445 755 -5.711082 3.374710 1.184 
455 755 -5.316950 3.465555 1.246 
465 755 -5.178578 2.823849 1.697 
475 755 -5.565796 1.907495 5.052 
485 755 -6.100699 0.999818 2.276 
495 755 -5.985077 0.825311 1.303 
505 755 -5.482223 1.051768 1.191 
515 755 -5.930923 1.105362 1.909 
525 755 -5.544775 0.674635 1.940 
535 755 -5.836595 -0.024075 1.035 
545 755 -5.932932 -0.679390 1.406 
555 755 -5.268614 -1.454663 3.223 
565 755 -4.973585 -1.439321 3.161 
575 755 -4.687928 -0.653185 3.621 
585 755 -4.719621 1.272531 18.178 
595 755 -5.096895 1.579085 4.133 
605 755 -5.715179 0.272834 1.098 
615 755 -5.741952 -0.608547 2.375 
625 755 -5.777885 -0.732854 3.461 
635 755 -5.691632 -0.399027 2.848 
645 755 -5.308005 -0.241720 2.938 
655 755 -4.797261 0.022167 1.279 
665 755 -4.529822 0.088256 1.781 
675 755 -5.183249 -0.511817 2.406 
685 755 -4.964972 -0.999300 1.449 
695 755 -4.704753 -0.884054 2.578 
705 755 -4.567727 -0.305523 1.064 
715 755 -4.897577 0.212714 1.141 
725 755 -4.777278 0.398613 1.632 
735 755 -4.422789 0.111449 1.707 
745 755 -4.178044 0.156289 1.329 
755 755 -4.028468 0.635659 3.082 
765 755 -4.190432 0.536332 2.113 
775 755 -4.496871 0.281817 1.765 
785 755 -4.823679 -0.315207 1.218 
795 755 -4.835928 -0.631349 1.943 
805 755 -4.388679 -0.562747 3.684 
815 755 -3.723212 0.095742 2.037 
825 755 -3.387840 0.390416 4.063 
835 755 -3.724284 0.374582 2.846 
845 755 -4.054496 0.045646 1.690 
855 755 -4.216955 -0.391263 2.667 
865 755 -4.308544 -0.514984 1.897 
875 755 -4.674638 -0.252761 2.471 
885 755 -4.876989 -0.307112 9.474 
895 755 -4.907015 -0.550478 20.000 
905 755 -4.332546 -0.813529 1.299 
915 755 -4.346511 -0.245499 1.798 
925 755 -4.249338 -0.043453 1.512 
935 755 -4.207006 -0.100600 1.058 
945 755 -3.640613 0.236805 1.166 
955 755 -3.397286 0.385262 1.349 
965 755 -2.949690 0.387720 1.297 
975 755 -2.934088 0.278567 1.704 
985 755 -2.659137 -0.240930 1.696 
995 755 -3.183039 -0.459610 2.722 
1005 755 -3.719832 -0.765177 2.394 
1015 755 -3.965958 -0.588869 1.021 
1025 755 -3.945133 -0.444270 10.174 
1035 755 -3.772847 -0.761727 4.500 
1045 755 -2.948640 -1.128680 1.334 
1055 755 -2.692778 -1.071049 1.856 
1065 755 -2.670273 -1.210625 20.000 
1075 755 -2.682712 -1.145614 20.000 
1085 755 -2.849195 -0.647288 1.996 
1095 755 -2.959453 -0.284448 3.771 
1105 755 -2.940809 -0.022503 1.552 
1115 755 -2.145402 0.280172 2.007 
1125 755 -1.485716 0.907683 1.249 
1135 755 -1.106093 1.246490 1.124 
1145 755 1.818285 1.745728 1.035 
1155 755 2.890721 2.626593 1.091 
1165 755 3.963156 3.507458 1.131 
1175 755 0.615357 4.897167 1.161 
1185 755 -4.195894 2.183175 1.431 
1195 755 -6.715376 1.392012 1.382 
1205 755 -8.855998 -0.595810 1.037 
1215 755 -10.996620 -2.583631 1.026 
1225 755 -14.663059 -0.064915 1.375 
1235 755 -19.138074 0.159362 1.090 
1245 755 -19.216571 -1.411174 1.086 
1255 755 -16.834084 -5.792791 1.240 
1265 755 -13.963614 -10.667239 1.436 
1275 755 -10.913415 -11.511933 1.363 
5 745 -0.360168 13.351331 1.029 
15 745 0.256468 19.081758 1.029 
25 745 0.743385 21.359279 1.560 
35 745 1.230303 23.636801 2.365 
45 745 2.434954 18.889858 1.280 
55 745 1.935522 14.201080 1.320 
65 745 2.988410 8.650404 1.014 
75 745 5.050694 4.007557 1.013 
85 745 3.877777 0.827206 1.001 
95 745 2.902970 3.721974 1.095 
105 745 2.326412 11.064000 1.080 
115 745 -1.300620 10.846362 1.570 
125 745 -4.281073 9.329790 1.447 
135 745 -6.248350 5.504381 20.000 
145 745 -7.079003 2.765010 3.829 
155 745 -6.547245 1.305863 1.868 
165 745 -5.155314 1.641394 1.357 
175 745 -6.466546 2.182953 1.262 
185 745 -7.213805 1.598427 1.287 
195 745 0.807868 1.120617 1.015 
205 745 0.679120 0.699637 1.085 
215 745 -6.575933 0.831543 1.142 
225 745 -8.699419 0.555744 1.101 
235 745 -8.088317 0.512520 1.276 
245 745 -7.547218 1.650214 2.045 
255 745 -7.129808 2.017771 2.243 
265 745 -6.787688 2.309290 1.638 
275 745 -7.534037 2.424976 1.072 
285 745 -7.180276 2.240512 1.436 
295 745 -5.675127 1.803478 1.220 
305 745 -4.520861 1.731220 1.007 
315 745 -1.396732 4.056832 1.072 
325 745 -4.865906 1.284810 1.578 
335 745 -6.533034 -0.070762 1.825 
345 745 -5.447046 0.283609 1.487 
355 745 -5.287033 1.212062 1.134 
365 745 -5.676628 1.357011 1.288 
375 745 -5.546256 1.463490 4.282 
385 745 -5.145138 1.140116 3.650 
395 745 -5.232541 0.891856 2.134 
405 745 -5.845493 0.757142 2.007 
415 745 -6.391020 0.979343 1.054 
425 745 -5.569363 2.089747 2.162 
435 745 -5.433009 2.930369 2.468 
445 745 -5.560444 3.571783 1.823 
455 745 -5.288777 3.473912 1.280 
465 745 -5.236330 2.866583 1.858 
475 745 -5.530205 2.100417 4.905 
485 745 -5.855368 1.260005 1.926 
495 745 -5.851730 0.987045 1.270 
505 745 -5.669641 0.658639 2.098 
515 745 -5.846799 0.297944 2.176 
525 745 -5.770261 -0.480964 1.760 
535 745 -5.928883 -0.605596 1.470 
545 745 -5.940650 -0.623278 1.212 
555 745 -5.579368 -1.155911 1.002 
565 745 -5.023095 -1.227743 1.651 
575 745 -4.711766 -0.467933 1.220 
585 745 -4.911722 0.569321 3.203 
595 745 -5.274276 0.879371 2.460 
605 745 -5.948306 -0.043000 1.433 
615 745 -6.077260 -0.715024 2.977 
625 745 -5.855266 -0.617565 3.455 
635 745 -5.589536 -0.354372 2.491 
645 745 -5.165143 -0.231620 2.919 
655 745 -4.923698 -0.053523 2.123 
665 745 -4.902508 0.019537 1.787 
675 745 -5.325366 -0.405590 1.921 
685 745 -5.072888 -0.767661 1.879 
695 745 -4.652319 -0.850717 1.329 
705 745 -4.707360 -0.195183 2.360 
715 745 -4.912440 0.241432 3.114 
725 745 -4.994497 0.259964 3.295 
735 745 -4.679301 -0.062037 1.783 
745 745 -4.310946 -0.034045 1.935 
755 745 -4.078231 0.248969 2.043 
765 745 -4.094828 0.105219 2.268 
775 745 -4.246600 -0.143315 2.209 
785 745 -4.613731 -0.146841 1.248 
795 745 -4.608894 -0.153957 1.363 
805 745 -4.074969 0.193960 1.449 
815 745 -3.524036 0.422405 1.779 
825 745 -3.055497 0.430447 1.660 
835 745 -3.209737 0.510164 3.187 
845 745 -3.345786 -0.042455 1.302 
855 745 -3.408066 -0.465963 1.727 
865 745 -3.436667 -0.658556 4.821 
875 745 -3.769480 -0.551645 2.040 
885 745 -4.215262 -0.359333 2.962 
895 745 -4.660981 -0.174407 4.227 
905 745 -4.525239 -0.206271 2.050 
915 745 -4.476884 0.032811 1.651 
925 745 -4.218082 0.185055 1.359 
935 745 -3.806098 0.261433 1.035 
945 745 -3.376904 0.342863 1.230 
955 745 -3.082493 0.253345 5.733 
965 745 -2.797337 0.130144 2.201 
975 745 -2.649108 0.122721 1.183 
985 745 -2.991807 -0.422064 1.462 
995 745 -3.264956 -0.553176 2.051 
1005 745 -4.325391 -0.691121 2.953 
1015 745 -4.299381 -0.290191 1.703 
1025 745 -4.074355 -0.232508 1.349 
1035 745 -3.683132 -0.503691 1.564 
1045 745 -3.092806 -0.670618 2.108 
1055 745 -2.737173 -0.764329 3.635 
1065 745 -2.752117 -0.937257 5.095 
1075 745 -2.872903 -1.047140 2.812 
1085 745 -3.244597 -0.881911 1.746 
1095 745 -3.146277 -0.373006 2.937 
1105 745 -2.555720 -0.287539 2.756 
1115 745 -2.308139 0.126772 1.889 
1125 745 -1.620464 1.492652 1.200 
1135 745 -2.359991 1.926372 3.624 
1145 745 -0.162808 1.973240 6.962 
1155 745 0.579121 3.144170 1.108 
1165 745 -1.634341 4.835350 1.073 
1175 745 -1.400597 4.795171 1.191 
1185 745 -4.999464 3.538523 1.078 
1195 745 -5.512986 2.080229 1.046 
1205 745 -6.232775 -1.389134 1.003 
1215 745 -9.874630 -1.591193 1.086 
1225 745 -13.516484 -1.793252 1.362 
1235 745 -15.825404 -0.162375 1.133 
1245 745 -16.934617 -1.631091 1.147 
1255 745 -13.473757 -5.994541 1.157 
1265 745 -11.258787 -12.116041 1.034 
1275 745 -7.673418 -11.936518 1.042 
5 735 -0.971898 15.258546 1.584 
15 735 -0.086943 19.191045 1.584 
25 735 0.592756 21.852298 1.339 
35 735 1.272456 24.513551 1.795 
45 735 0.561730 20.966233 1.512 
55 735 2.409290 14.953387 1.088 
65 735 4.100251 8.571855 1.096 
75 735 1.375156 2.432666 1.111 
85 735 -0.250808 2.024497 1.236 
95 735 -2.594103 3.686184 1.092 
105 735 -2.884418 6.145710 1.273 
115 735 -3.715655 7.071587 1.305 
125 735 -5.541533 5.305407 3.035 
135 735 -7.264245 3.625275 44.604 
145 735 -7.325651 2.102698 5.255 
155 735 -6.111891 1.511946 2.626 
165 735 -3.579023 1.569086 1.468 
175 735 -0.205759 2.007621 1.163 
185 735 3.167506 2.446157 1.020 
195 735 0.846451 -0.787174 1.115 
205 735 -6.723671 -0.625757 1.378 
215 735 -9.175614 0.044098 1.006 
225 735 -11.627557 0.713952 1.105 
235 735 -6.928493 0.699680 2.946 
245 735 -6.199427 1.521820 2.325 
255 735 -5.791041 1.970895 1.952 
265 735 -6.094434 2.251128 2.742 
275 735 -7.211758 2.457320 1.498 
285 735 -6.535220 2.976225 1.049 
295 735 -6.265400 2.252386 1.059 
305 735 -5.281011 1.867339 1.043 
315 735 -3.895021 0.032013 1.066 
325 735 -8.185136 0.203199 1.241 
335 735 -8.050217 0.264077 1.022 
345 735 -6.292966 0.489506 2.472 
355 735 -5.561282 0.920855 1.740 
365 735 -6.084835 1.385815 1.669 
375 735 -6.134071 1.086936 2.886 
385 735 -6.004080 0.769632 4.100 
395 735 -5.639179 0.658885 1.401 
405 735 -5.897795 0.655803 1.825 
415 735 -6.177054 0.897219 3.232 
425 735 -5.836298 2.139066 2.871 
435 735 -5.549359 2.796294 65.166 
445 735 -5.589458 3.412665 7.379 
455 735 -5.264111 3.235323 1.265 
465 735 -5.353378 2.667427 2.316 
475 735 -5.791614 2.033994 2.921 
485 735 -5.760839 1.214957 2.271 
495 735 -5.444090 0.887486 5.196 
505 735 -5.205824 0.566803 5.673 
515 735 -5.231029 0.102647 9.611 
525 735 -5.564950 -0.474957 2.298 
535 735 -4.991688 -0.753542 1.543 
545 735 -5.207686 0.077507 2.834 
555 735 -4.882304 0.048051 2.076 
565 735 -4.969474 -0.614727 4.107 
575 735 -5.063162 -0.512994 2.113 
585 735 -5.072904 0.086422 2.455 
595 735 -5.351825 0.442225 3.922 
605 735 -5.778269 0.144446 2.053 
615 735 -6.231039 -0.247873 1.172 
625 735 -6.046312 -0.133602 2.378 
635 735 -5.824594 0.229248 3.778 
645 735 -5.467389 0.247333 1.860 
655 735 -5.050136 -0.129213 1.426 
665 735 -5.118528 -0.522249 1.718 
675 735 -5.669031 -0.526114 1.933 
685 735 -5.710879 -0.623402 3.467 
695 735 -5.207600 -0.652096 1.364 
705 735 -4.888567 -0.434524 1.500 
715 735 -4.958781 0.027068 3.990 
725 735 -4.780340 0.095691 3.240 
735 735 -4.604922 0.116193 1.867 
745 735 -4.492324 0.122536 2.434 
755 735 -4.276124 0.067346 2.428 
765 735 -4.005835 -0.063038 3.064 
775 735 -4.115567 -0.053005 1.521 
785 735 -4.300463 0.056026 2.064 
795 735 -4.408965 -0.065127 1.541 
805 735 -4.119354 0.254551 1.076 
815 735 -3.736196 0.600946 1.881 
825 735 -3.410108 0.556959 1.593 
835 735 -3.393317 0.008737 5.069 
845 735 -3.186976 -0.441065 1.530 
855 735 -3.052119 -0.683244 2.021 
865 735 -2.813278 -0.873605 3.257 
875 735 -2.220619 -0.729919 2.909 
885 735 -2.809954 -0.664512 4.063 
895 735 -3.319242 -0.448019 2.826 
905 735 -3.653278 -0.207484 2.414 
915 735 -3.798606 0.028567 2.345 
925 735 -3.724861 0.286481 1.612 
935 735 -3.397051 0.328671 1.271 
945 735 -3.129676 0.363162 1.795 
955 735 -3.126748 0.235205 1.252 
965 735 -3.338786 -0.157125 3.812 
975 735 -3.343026 -0.429252 4.893 