TITLE = "B00132"
VARIABLES = "x", "y", "u", "v", "sn"
ZONE T="Frame 0", I=128, J=80
5 795 -3.678999 0.072417 1.133 
15 795 -1.979688 -2.179770 1.133 
25 795 -0.769205 -5.752913 1.398 
35 795 0.015684 -3.903159 1.430 
45 795 0.800574 -2.053404 1.004 
55 795 1.585464 -0.203650 1.244 
65 795 2.370354 1.646105 1.050 
75 795 3.590597 -1.554268 1.251 
85 795 4.810839 -4.754640 1.054 
95 795 5.851749 -3.734627 2.068 
105 795 6.892659 -2.714614 1.079 
115 795 3.623274 0.225756 1.046 
125 795 2.693287 6.808610 1.053 
135 795 9.717689 6.595198 1.285 
145 795 6.930008 4.914304 1.471 
155 795 4.142328 3.233410 1.071 
165 795 1.354647 1.552516 1.031 
175 795 -0.875243 -0.769103 2.613 
185 795 -1.257780 -0.048781 2.298 
195 795 -1.751790 1.347994 1.014 
205 795 -2.482151 1.148408 7.233 
215 795 -2.587912 1.323798 20.000 
225 795 -2.367000 1.368407 2.905 
235 795 -2.010140 1.256949 2.697 
245 795 -1.913071 0.764888 1.668 
255 795 -1.867354 0.322215 1.267 
265 795 -1.111944 0.327868 6.315 
275 795 -0.754012 0.431838 20.000 
285 795 -0.966817 0.644147 5.451 
295 795 -1.288369 1.103880 3.412 
305 795 -1.298431 1.264356 1.009 
315 795 -1.279338 1.502985 1.607 
325 795 -1.438742 2.149710 3.064 
335 795 -1.565968 2.414295 2.493 
345 795 -1.742071 1.895967 7.385 
355 795 -1.718354 1.116023 10.220 
365 795 -1.392868 0.667902 4.446 
375 795 -0.861281 0.739217 2.551 
385 795 -0.670664 0.889924 3.194 
395 795 -0.816660 1.025381 1.083 
405 795 -1.207554 1.064777 2.755 
415 795 -1.542246 0.867290 2.853 
425 795 -1.543484 0.860721 1.444 
435 795 -1.533282 0.910972 2.486 
445 795 -0.724491 0.838723 1.608 
455 795 -0.539243 0.659459 1.525 
465 795 -0.353996 0.480195 1.423 
475 795 -0.485271 -0.061592 2.102 
485 795 -0.616545 -0.603379 1.420 
495 795 -1.525752 0.661521 1.998 
505 795 -1.623235 1.774305 1.440 
515 795 -1.838679 2.220049 1.219 
525 795 -2.208885 2.285034 2.105 
535 795 -2.188573 2.423101 4.160 
545 795 -2.400294 1.967215 3.042 
555 795 -2.108716 1.964371 4.701 
565 795 -1.817139 1.961526 2.385 
575 795 -1.746758 2.295600 1.604 
585 795 -1.730854 2.080680 2.430 
595 795 -1.517426 1.861138 2.286 
605 795 -0.805073 1.435208 1.600 
615 795 -0.625778 0.373886 1.686 
625 795 -0.985575 -0.540904 9.249 
635 795 -1.778989 -0.913604 4.427 
645 795 -2.229448 -1.396319 4.539 
655 795 -2.384290 -1.285665 1.810 
665 795 -2.539133 -1.175010 1.082 
675 795 -2.692527 -0.006117 1.782 
685 795 -3.297309 0.756914 1.463 
695 795 -3.241633 0.512118 1.544 
705 795 -3.185957 0.267323 1.836 
715 795 -1.838202 -0.703933 6.118 
725 795 -1.295887 -0.937692 3.666 
735 795 -1.362472 -0.452201 4.029 
745 795 -1.623006 0.294330 3.257 
755 795 -2.124394 0.762637 1.101 
765 795 -1.888609 0.790040 2.984 
775 795 -1.069693 0.964509 2.622 
785 795 -0.329710 1.540311 1.110 
795 795 -0.438106 1.693262 2.435 
805 795 -0.676357 1.721955 1.285 
815 795 -0.860672 1.753605 2.306 
825 795 -1.129932 1.873082 2.110 
835 795 -1.137773 2.134021 1.850 
845 795 -1.036433 1.485144 2.325 
855 795 -0.391191 -0.243521 1.742 
865 795 -0.267844 -1.344254 2.839 
875 795 -0.802783 -2.273821 2.719 
885 795 -0.827789 -2.940329 1.769 
895 795 -0.495540 -1.037630 1.212 
905 795 -0.676430 0.485269 6.042 
915 795 -0.857319 2.008169 7.541 
925 795 -1.518072 2.549048 9.381 
935 795 -2.178826 3.089926 2.315 
945 795 -2.839579 3.630805 1.417 
955 795 -3.500332 4.171684 1.005 
965 795 -2.143920 -0.385462 1.613 
975 795 -2.295342 -0.528237 1.884 
985 795 -1.838152 -0.933024 1.044 
995 795 -1.364706 -1.166040 1.072 
1005 795 -1.320548 -1.487349 4.390 
1015 795 -0.882007 -1.053929 1.374 
1025 795 -0.366858 0.593359 1.392 
1035 795 0.203965 0.177734 1.009 
1045 795 0.524911 -4.035946 1.008 
1055 795 0.794805 -12.684682 1.275 
1065 795 0.761911 -16.930433 1.335 
1075 795 -0.043872 -12.705842 1.177 
1085 795 -0.670671 -6.292219 1.362 
1095 795 -0.423414 -3.549065 1.711 
1105 795 -0.176158 -0.805911 1.275 
1115 795 -0.234566 -0.456659 1.066 
1125 795 1.050676 0.310368 1.466 
1135 795 1.082404 0.142699 2.106 
1145 795 1.114132 -0.024969 1.008 
1155 795 1.145860 -0.192638 1.045 
1165 795 5.171748 0.958889 1.159 
1175 795 9.197637 2.110416 1.047 
1185 795 9.756014 -0.129195 1.144 
1195 795 10.962474 -0.276714 1.228 
1205 795 9.351282 0.292486 1.674 
1215 795 7.740089 0.861685 1.874 
1225 795 6.128897 1.430884 1.162 
1235 795 4.517704 2.000083 1.388 
1245 795 2.906512 2.569283 1.192 
1255 795 1.295319 3.138482 1.051 
1265 795 -0.315873 3.707681 1.230 
1275 795 0.000000 -0.000000 1.207 
5 785 -9.398003 3.191644 1.133 
15 785 -6.676785 0.055045 1.133 
25 785 -4.115375 -4.200624 1.398 
35 785 -2.306161 -5.714837 1.430 
45 785 -1.254838 -2.364729 1.004 
55 785 -0.569081 -1.594250 1.244 
65 785 0.116676 -0.823772 1.050 
75 785 2.092513 -4.777904 1.251 
85 785 2.728798 -6.644757 1.054 
95 785 4.543567 -5.317358 2.068 
105 785 6.358335 -3.989959 1.079 
115 785 3.302833 -1.273898 1.046 
125 785 2.090714 4.702076 1.053 
135 785 8.673890 4.629905 1.285 
145 785 6.804450 3.049966 1.471 
155 785 4.935009 1.470026 1.071 
165 785 1.501365 0.972294 1.031 
175 785 -0.848588 -0.360199 2.613 
185 785 -1.512510 -0.002151 2.298 
195 785 -1.927778 1.359801 1.014 
205 785 -2.541806 1.117139 7.233 
215 785 -2.602495 1.204135 20.000 
225 785 -2.405879 1.189244 2.905 
235 785 -1.964853 1.098064 2.697 
245 785 -1.766573 0.695260 1.668 
255 785 -1.753589 0.286524 1.267 
265 785 -1.081800 0.266341 6.315 
275 785 -0.787165 0.361698 20.000 
285 785 -0.950386 0.610058 5.451 
295 785 -1.232438 1.062646 3.412 
305 785 -1.257324 1.235917 1.009 
315 785 -1.251607 1.535789 1.607 
325 785 -1.380466 2.190206 3.064 
335 785 -1.465011 2.448197 2.493 
345 785 -1.597456 1.973808 7.385 
355 785 -1.567743 1.219490 10.220 
365 785 -1.292090 0.699362 4.446 
375 785 -0.817891 0.687730 2.551 
385 785 -0.630188 0.818212 3.194 
395 785 -0.746352 0.890766 1.083 
405 785 -1.145459 0.871463 2.755 
415 785 -1.546855 0.635618 2.853 
425 785 -1.675952 0.544801 1.444 
435 785 -1.551738 0.527644 2.486 
445 785 -0.847742 0.619750 1.608 
455 785 -0.850362 0.534475 1.525 
465 785 -0.852981 0.449199 1.423 
475 785 -1.190357 0.137497 2.102 
485 785 -1.212086 -0.350349 1.420 
495 785 -1.887293 0.814661 1.998 
505 785 -1.778786 1.782982 1.440 
515 785 -1.867024 2.198900 1.219 
525 785 -2.141862 2.233220 2.105 
535 785 -2.164369 2.348260 4.160 
545 785 -2.385344 1.941612 3.042 
555 785 -2.311205 1.658672 4.701 
565 785 -1.844465 1.942748 2.385 
575 785 -1.809983 2.220618 1.604 
585 785 -1.786982 2.040991 2.430 
595 785 -1.585374 1.826671 2.286 
605 785 -0.879387 1.356971 1.600 
615 785 -0.660825 0.277911 1.686 
625 785 -0.915414 -0.601557 9.249 
635 785 -1.609665 -1.000767 4.427 
645 785 -1.945757 -1.324154 4.539 
655 785 -2.120490 -1.763370 1.810 
665 785 -1.965135 -1.042480 1.082 
675 785 -2.078459 -0.068508 1.782 
685 785 -2.717263 0.721041 1.463 
695 785 -3.283407 0.722941 1.544 
705 785 -2.803096 0.301442 1.836 
715 785 -1.557087 -0.561513 6.118 
725 785 -1.052894 -0.727822 3.666 
735 785 -1.125980 -0.310781 4.029 
745 785 -1.383067 0.368196 3.257 
755 785 -1.888550 0.795149 1.101 
765 785 -1.720854 0.832253 2.984 
775 785 -1.012216 1.003015 2.622 
785 785 -0.406245 1.480137 1.110 
795 785 -0.611440 1.565302 2.435 
805 785 -1.055546 1.496916 1.285 
815 785 -1.030553 1.700698 2.306 
825 785 -1.299776 1.808323 2.110 
835 785 -1.289407 2.006478 1.850 
845 785 -1.201249 1.442210 2.325 
855 785 -0.614084 -0.117015 1.742 
865 785 -0.390403 -1.136845 2.839 
875 785 -0.892006 -2.085258 2.719 
885 785 -0.854474 -2.428985 1.769 
895 785 -0.540417 -0.953692 1.212 
905 785 -0.463841 1.364458 6.042 
915 785 -1.049999 1.933698 7.541 
925 785 -3.860808 0.396900 9.381 
935 785 -4.514215 1.378199 2.315 
945 785 -3.714195 2.729455 1.417 
955 785 -2.909189 2.581128 1.005 
965 785 -2.037553 -0.376254 1.613 
975 785 -2.127372 -0.615309 1.884 
985 785 -1.742461 -1.075266 1.044 
995 785 -1.371333 -1.271758 1.072 
1005 785 -1.373349 -1.731315 4.390 
1015 785 -0.837234 -1.997367 1.374 
1025 785 -0.260134 -1.364647 1.392 
1035 785 0.023507 0.786706 1.009 
1045 785 0.393845 -2.511989 1.008 
1055 785 0.549022 -8.614866 1.275 
1065 785 0.704200 -14.717744 1.335 
1075 785 -0.254953 -10.330182 1.177 
1085 785 -1.005631 -4.732271 1.362 
1095 785 -0.393181 -2.812906 1.711 
1105 785 -0.517677 -0.476115 1.275 
1115 785 -0.485383 -0.099162 1.066 
1125 785 0.549817 0.360428 1.466 
1135 785 1.087579 1.286499 2.106 
1145 785 1.248417 1.254603 1.008 
1155 785 1.216473 3.680102 1.045 
1165 785 4.351169 3.891295 1.159 
1175 785 5.984509 0.338369 1.047 
1185 785 6.218685 -4.248568 1.144 
1195 785 8.029696 -3.049533 1.228 
1205 785 9.663850 -1.899989 1.674 
1215 785 10.279555 -1.950225 1.874 
1225 785 10.117779 -0.772732 1.162 
1235 785 11.627585 1.730223 1.388 
1245 785 8.719487 2.943715 1.192 
1255 785 4.682551 2.125424 1.051 
1265 785 0.645615 1.307133 1.230 
1275 785 0.755900 -1.870513 1.207 
5 775 -20.555756 8.103435 1.025 
15 775 -14.952790 2.276880 1.025 
25 775 -5.392095 -0.950084 1.199 
35 775 -3.330265 -1.370894 1.717 
45 775 -1.567508 1.428838 1.007 
55 775 1.414985 2.621301 1.414 
65 775 0.551480 -0.959340 1.530 
75 775 -0.460179 -5.847896 1.203 
85 775 0.646758 -8.534874 1.495 
95 775 2.367528 -5.491492 1.496 
105 775 4.088298 -2.448109 1.183 
115 775 1.304790 1.343114 1.416 
125 775 2.898786 3.130877 1.080 
135 775 4.940444 0.705382 1.016 
145 775 5.183906 -2.094239 1.021 
155 775 2.694089 -0.197897 1.025 
165 775 0.630769 0.713864 1.437 
175 775 -1.619575 -0.107086 1.107 
185 775 -2.066027 0.942544 3.044 
195 775 -2.299444 1.465677 2.066 
205 775 -2.472151 1.279372 3.242 
215 775 -2.618520 1.064909 21.287 
225 775 -2.252726 1.001423 8.587 
235 775 -1.720265 0.798261 2.197 
245 775 -1.510284 0.733059 1.164 
255 775 -1.434834 0.319478 1.324 
265 775 -1.301830 0.257069 2.338 
275 775 -1.106171 0.352970 2.271 
285 775 -1.115670 0.661438 2.987 
295 775 -1.233444 0.904265 1.701 
305 775 -1.263627 1.256960 1.997 
315 775 -1.298964 1.795405 2.193 
325 775 -1.401723 2.237481 6.697 
335 775 -1.437528 2.332317 6.570 
345 775 -1.525783 2.018688 20.000 
355 775 -1.485637 1.445336 1.850 
365 775 -1.143414 0.717837 2.038 
375 775 -0.995999 0.392307 2.613 
385 775 -0.700630 0.379764 2.015 
395 775 -0.824251 0.586749 2.542 
405 775 -1.193612 0.685772 3.810 
415 775 -1.381438 0.461159 2.971 
425 775 -1.713173 0.468682 1.725 
435 775 -1.810306 0.522487 1.515 
445 775 -0.477016 0.685739 1.409 
455 775 -0.865975 0.652706 1.966 
465 775 -0.967212 0.031522 1.630 
475 775 -2.574926 1.157293 2.082 
485 775 -2.858952 0.951929 1.211 
495 775 -2.667719 1.324140 1.455 
505 775 -2.002188 1.853857 1.762 
515 775 -1.774580 1.899677 2.610 
525 775 -1.864702 1.987883 2.593 
535 775 -2.197585 2.231586 2.958 
545 775 -2.188165 2.257004 3.167 
555 775 -2.248035 1.858661 4.347 
565 775 -1.972019 1.708976 2.765 
575 775 -1.939810 2.037726 2.036 
585 775 -2.036740 2.244530 1.483 
595 775 -1.799720 1.906132 2.161 
605 775 -1.209386 1.077104 2.872 
615 775 -0.771058 -0.126845 1.561 
625 775 -0.937365 -0.780049 1.580 
635 775 -1.261885 -0.615935 1.865 
645 775 -1.467243 -0.544552 1.337 
655 775 -1.363754 -0.820719 1.012 
665 775 -0.513389 -0.647807 7.586 
675 775 -0.462849 -0.280656 6.127 
685 775 -1.197149 0.350109 4.839 
695 775 -2.294967 0.595787 2.118 
705 775 -2.082862 0.330682 2.699 
715 775 -1.182717 -0.267378 3.287 
725 775 -0.745699 -0.150735 2.006 
735 775 -0.749983 0.117925 8.505 
745 775 -0.895127 0.239680 1.914 
755 775 -1.356851 0.649551 1.512 
765 775 -1.218062 0.938995 1.711 
775 775 -0.931814 1.326132 1.851 
785 775 -0.790200 1.397408 1.214 
795 775 -1.013402 1.432853 6.055 
805 775 -1.423292 1.440117 11.797 
815 775 -1.568083 1.547990 4.826 
825 775 -1.720777 1.510077 3.132 
835 775 -1.933802 1.955888 6.542 
845 775 -2.021207 1.452669 9.603 
855 775 -1.753215 0.119173 2.453 
865 775 -1.688475 -0.408616 3.317 
875 775 -1.558857 -1.192836 1.898 
885 775 -1.121491 -1.739971 2.612 
895 775 -0.915723 -0.904429 3.309 
905 775 -0.896747 0.942992 4.740 
915 775 -1.888630 1.264609 2.042 
925 775 -3.426144 0.540858 20.000 
935 775 -3.882029 0.605124 2.412 
945 775 -2.734890 0.851038 1.044 
955 775 -2.039570 0.937392 3.174 
965 775 -1.685495 0.414494 3.745 
975 775 -1.844225 -0.946343 2.556 
985 775 -1.869920 -1.450102 2.034 
995 775 -1.504817 -1.386289 2.132 
1005 775 -1.580920 -1.598033 1.833 
1015 775 -1.442977 -2.143639 1.022 
1025 775 -0.306719 -2.529103 1.613 
1035 775 -0.013879 -0.727519 1.185 
1045 775 0.066792 0.144985 1.120 
1055 775 0.324945 -1.000645 2.013 
1065 775 0.583099 -2.146274 1.200 
1075 775 -1.140175 -2.799263 3.104 
1085 775 -1.145551 -1.736741 2.945 
1095 775 -1.102165 -1.749301 1.910 
1105 775 -1.124838 -1.368947 6.112 
1115 775 -0.742659 -0.159507 2.700 
1125 775 -0.115983 0.458599 1.226 
1135 775 0.586968 1.670117 2.184 
1145 775 0.861334 2.426233 1.472 
1155 775 1.586974 6.624314 2.481 
1165 775 2.639398 5.883366 1.729 
1175 775 2.771381 -1.433678 1.123 
1185 775 2.790863 -8.182727 1.157 
1195 775 4.683234 -6.471471 1.388 
1205 775 6.324987 -4.214607 1.131 
1215 775 6.779371 -3.031724 1.406 
1225 775 2.149145 -1.848524 1.046 
1235 775 -0.485527 0.385978 1.277 
1245 775 -0.327400 1.829543 1.053 
1255 775 -0.357018 1.445850 1.151 
1265 775 0.175489 -0.714817 1.301 
1275 775 0.506637 -2.918453 1.403 
5 765 -14.297421 7.292962 1.130 
15 765 -9.690416 3.026363 1.130 
25 765 -6.668814 2.300456 2.494 
35 765 -2.801883 2.498391 1.454 
45 765 -0.508581 2.500630 4.242 
55 765 0.386000 1.590925 2.689 
65 765 1.309496 0.489049 1.517 
75 765 -1.078933 -5.032137 1.018 
85 765 -2.423927 -7.673118 1.126 
95 765 0.908214 -7.101108 1.076 
105 765 -0.527806 -2.362769 1.335 
115 765 -0.236645 0.801742 1.370 
125 765 0.711756 1.610931 1.235 
135 765 1.262223 -3.253084 1.063 
145 765 1.767776 -3.829529 1.785 
155 765 0.393852 -1.417286 1.236 
165 765 -0.959880 -0.674266 1.487 
175 765 -2.313611 0.068754 1.072 
185 765 -3.003741 0.800485 2.018 
195 765 -2.853985 1.373396 2.407 
205 765 -2.769209 0.943506 2.148 
215 765 -2.459433 0.670628 6.265 
225 765 -2.187711 0.525458 2.336 
235 765 -1.400067 0.553556 2.074 
245 765 -1.095745 0.768381 1.971 
255 765 -1.215716 0.585318 1.366 
265 765 -1.466698 0.372534 3.108 
275 765 -1.472580 0.504901 2.236 
285 765 -1.476004 0.836088 2.116 
295 765 -1.344197 0.825267 1.583 
305 765 -1.415630 1.101353 2.162 
315 765 -1.553127 1.681709 3.510 
325 765 -1.538287 2.007854 39.109 
335 765 -1.492878 2.003917 15.904 
345 765 -1.563163 1.834089 87.378 
355 765 -1.555707 1.398014 1.492 
365 765 -1.441768 0.664047 1.151 
375 765 -1.202427 0.246546 1.326 
385 765 -0.541716 0.587510 5.932 
395 765 -0.680722 0.766841 6.301 
405 765 -1.024188 0.709496 2.245 
415 765 -1.231176 0.497834 1.955 
425 765 -1.714146 0.107558 1.511 
435 765 -1.826576 -0.229941 1.451 
445 765 -0.192148 0.135338 1.642 
455 765 -0.039778 -0.896601 2.011 
465 765 -1.081442 -0.386156 1.994 
475 765 -2.414370 0.724292 1.452 
485 765 -2.869925 1.403027 1.195 
495 765 -2.342419 0.909093 1.593 
505 765 -2.133307 1.402692 2.394 
515 765 -1.667633 1.777728 4.928 
525 765 -1.799541 1.947792 1.501 
535 765 -2.136405 2.068365 1.132 
545 765 -2.210735 2.208035 1.251 
555 765 -2.239524 2.154461 2.323 
565 765 -2.003096 1.916017 3.142 
575 765 -1.878602 2.022014 1.839 
585 765 -2.026194 2.136858 1.305 
595 765 -1.801346 1.882784 3.626 
605 765 -1.449179 1.163343 2.217 
615 765 -1.130878 -0.226199 1.528 
625 765 -1.059608 -0.909550 1.752 
635 765 -1.193329 -0.798512 2.458 
645 765 -1.337531 -0.359947 1.486 
655 765 -0.730769 0.222457 1.077 
665 765 0.182763 0.145137 2.443 
675 765 0.451732 0.146178 4.776 
685 765 0.048282 0.312886 20.000 
695 765 -0.784637 0.518622 2.198 
705 765 -0.909138 0.298853 2.599 
715 765 -0.717633 0.557602 2.815 
725 765 -0.393552 0.574573 9.306 
735 765 -0.339799 0.599269 5.285 
745 765 -0.245457 0.556783 2.450 
755 765 -0.562320 0.645255 2.545 
765 765 -0.671509 0.925143 2.267 
775 765 -0.606736 1.303576 1.214 
785 765 -0.881160 1.161697 1.659 
795 765 -1.375718 1.086531 2.048 
805 765 -1.686881 1.265676 2.044 
815 765 -1.746141 1.371539 2.769 
825 765 -1.701354 1.114245 3.065 
835 765 -1.989877 1.381595 3.925 
845 765 -2.394981 0.968199 2.652 
855 765 -2.465565 0.584834 1.802 
865 765 -2.117893 0.260448 1.860 
875 765 -1.933771 -0.368782 1.585 
885 765 -1.388507 -1.050956 1.797 
895 765 -0.994972 -0.622035 2.448 
905 765 -1.171227 0.188786 1.321 
915 765 -1.837587 0.413751 1.756 
925 765 -2.449437 0.053735 1.001 
935 765 -2.663665 -0.059649 1.640 
945 765 -2.399907 0.688546 1.513 
955 765 -2.172395 1.119022 1.716 
965 765 -1.764560 0.584895 3.000 
975 765 -1.838817 -0.608904 3.880 
985 765 -1.809434 -1.141543 6.922 
995 765 -1.879830 -1.182944 2.259 
1005 765 -1.880379 -1.120663 1.934 
1015 765 -1.311698 -1.203897 2.200 
1025 765 -0.477792 -1.542005 1.003 
1035 765 -0.347157 -1.108069 1.188 
1045 765 0.003915 -0.299593 1.542 
1055 765 -0.047070 -0.186670 2.390 
1065 765 -0.759073 -1.378058 2.223 
1075 765 -1.435742 -1.515003 4.020 
1085 765 -1.566740 -1.381221 4.833 
1095 765 -1.586828 -1.696558 3.343 
1105 765 -1.672752 -1.424531 2.990 
1115 765 -1.146839 -1.151309 1.508 
1125 765 -0.539843 -0.474846 2.365 
1135 765 0.081789 0.525595 1.071 
1145 765 0.474251 3.597862 1.137 
1155 765 1.332021 6.862887 1.150 
1165 765 2.578278 6.723991 1.625 
1175 765 2.131341 -0.631723 1.124 
1185 765 1.905339 -7.526297 1.202 
1195 765 2.562268 -7.767562 1.659 
1205 765 3.161692 -4.885301 1.117 
1215 765 2.327886 -2.893129 1.324 
1225 765 -0.980431 -1.426637 1.758 
1235 765 -4.596635 0.050165 1.591 
1245 765 -4.887561 1.320632 1.005 
1255 765 -2.934106 1.314620 1.369 
1265 765 -0.529580 -2.933850 1.099 
1275 765 0.257374 -3.966394 1.090 
5 755 -8.039087 6.482490 1.020 
15 755 -4.428042 3.775846 1.020 
25 755 -1.657603 1.955167 1.280 
35 755 0.642003 3.309135 1.062 
45 755 0.474574 0.769152 2.277 
55 755 0.288997 0.107313 2.154 
65 755 -0.810487 -1.507492 1.915 
75 755 -1.869515 -3.862256 1.154 
85 755 -5.476895 -6.850213 1.019 
95 755 -3.950579 -7.390302 1.382 
105 755 -5.334476 -3.444790 1.111 
115 755 -6.217476 0.456669 1.129 
125 755 -0.258934 -0.096872 1.055 
135 755 -1.087870 -2.837273 1.047 
145 755 0.036187 -4.433533 1.945 
155 755 -0.754177 0.781178 1.161 
165 755 -1.728595 0.447509 1.266 
175 755 -2.703013 0.113839 1.107 
185 755 -3.285416 0.048646 1.034 
195 755 -3.478948 0.369472 1.521 
205 755 -3.000401 0.206906 1.716 
215 755 -2.478227 -0.034403 1.260 
225 755 -1.870833 0.042930 1.382 
235 755 -1.116830 0.262284 3.036 
245 755 -0.792733 0.821155 20.000 
255 755 -0.735543 0.748541 3.050 
265 755 -0.823379 0.247905 2.600 
275 755 -1.104401 0.584050 2.828 
285 755 -1.213474 0.812344 2.485 
295 755 -1.526485 0.716267 1.833 
305 755 -1.878448 0.933956 3.915 
315 755 -1.850672 1.321194 4.355 
325 755 -1.434437 1.467968 1.819 
335 755 -1.513744 0.931551 1.437 
345 755 -1.432188 1.302066 1.104 
355 755 -1.423335 1.443932 1.285 
365 755 -1.639209 0.586595 1.596 
375 755 -1.303250 0.373334 1.473 
385 755 -0.792828 0.603464 4.022 
395 755 -0.794748 0.837762 7.673 
405 755 -0.868810 0.742539 2.080 
415 755 -0.821609 0.290170 1.632 
425 755 -1.638659 -0.344180 1.530 
435 755 -1.190161 -1.713854 1.019 
445 755 0.593693 -3.709175 6.201 
455 755 2.233120 -8.406688 2.220 
465 755 1.154645 -7.498253 1.584 
475 755 -0.648536 -3.728168 2.130 
485 755 -1.779315 -0.119218 5.406 
495 755 -2.017119 0.494045 1.103 
505 755 -1.953100 1.254461 1.831 
515 755 -1.734499 1.672315 6.544 
525 755 -1.729291 1.748311 1.201 
535 755 -2.112100 1.708111 1.657 
545 755 -2.222849 1.841575 5.063 
555 755 -2.194597 1.863105 5.423 
565 755 -2.112667 1.714270 2.447 
575 755 -1.872232 1.913056 2.504 
585 755 -1.947534 2.148704 3.553 
595 755 -1.787876 2.028282 2.253 
605 755 -1.655053 1.588066 2.884 
615 755 -1.471126 0.643738 4.478 
625 755 -1.209713 -0.316022 4.261 
635 755 -1.305879 -0.432071 1.462 
645 755 -1.320890 -0.215500 2.191 
655 755 -0.864304 0.629929 1.133 
665 755 -0.020226 0.780656 1.938 
675 755 0.402804 0.626478 2.176 
685 755 0.138984 0.589195 6.148 
695 755 -0.128766 0.558792 6.172 
705 755 -0.218576 0.419364 3.614 
715 755 -0.086856 0.431389 2.008 
725 755 0.201185 0.464161 3.206 
735 755 0.421917 0.490442 20.000 
745 755 0.478418 0.553503 2.436 
755 755 0.056803 0.888602 2.144 
765 755 -0.229797 0.966576 1.859 
775 755 -0.398615 0.836224 2.661 
785 755 -0.801540 0.668438 5.122 
795 755 -1.318177 0.756037 2.134 
805 755 -1.658640 1.061553 1.458 
815 755 -1.680518 1.111399 1.636 
825 755 -1.643962 0.986341 2.454 
835 755 -1.735496 1.066713 3.021 
845 755 -2.172902 0.611717 1.092 
855 755 -2.431981 0.961903 1.133 
865 755 -2.182257 0.876173 1.392 
875 755 -1.806303 0.308101 1.234 
885 755 -1.404120 -0.347840 2.113 
895 755 -1.149602 -0.271961 2.393 
905 755 -1.352972 0.148415 1.044 
915 755 -1.651689 0.074844 1.138 
925 755 -1.612385 -0.184644 1.831 
935 755 -2.245306 -0.162876 1.358 
945 755 -2.339132 0.179662 1.448 
955 755 -2.237926 0.479595 7.929 
965 755 -2.155095 0.106895 2.191 
975 755 -1.772686 -0.760322 8.414 
985 755 -1.672626 -1.288184 13.320 
995 755 -1.696439 -1.149827 3.826 
1005 755 -1.807794 -0.909921 3.003 
1015 755 -1.351830 -0.500170 6.790 
1025 755 -0.648864 -0.554907 2.433 
1035 755 -0.838711 -0.490316 1.859 
1045 755 -0.696205 -0.339809 1.636 
1055 755 -1.325246 -0.717206 1.660 
1065 755 -1.619813 -1.282820 3.239 
1075 755 -1.797325 -1.632344 2.426 
1085 755 -1.834117 -1.865562 2.919 
1095 755 -1.832342 -1.908366 27.554 
1105 755 -1.833214 -1.515492 22.308 
1115 755 -1.784913 -1.379176 1.634 
1125 755 -1.621622 -1.117733 12.998 
1135 755 -1.539313 -0.755846 20.000 
1145 755 -1.829246 0.691585 1.132 
1155 755 -1.395466 2.678444 1.134 
1165 755 0.497371 3.606337 1.119 
1175 755 0.805762 -4.708442 1.970 
1185 755 2.186525 -8.527468 1.083 
1195 755 2.989526 -7.010452 1.022 
1205 755 0.159979 -4.054413 1.119 
1215 755 -1.610326 -2.709520 1.153 
1225 755 -4.027133 -3.582406 1.127 
1235 755 -6.226422 -2.726514 1.012 
1245 755 -4.789066 1.796955 1.331 
1255 755 -4.433181 -0.783773 1.006 
1265 755 -1.533339 -4.573562 1.018 
1275 755 -0.578051 -4.480032 1.000 
5 745 1.885900 7.635756 1.093 
15 745 3.727237 5.943984 1.093 
25 745 5.437271 4.592134 1.311 
35 745 2.300890 3.148983 1.470 
45 745 0.279697 1.241871 1.000 
55 745 -3.710556 -0.279727 1.017 
65 745 -4.567190 -1.269310 1.793 
75 745 -6.548659 -1.156215 1.136 
85 745 -8.447911 -5.180708 1.086 
95 745 -6.114037 -5.903784 1.773 
105 745 -5.566086 -4.176496 1.152 
115 745 -3.919458 -1.611213 1.184 
125 745 -1.229623 -1.804675 1.243 
135 745 -0.763874 -2.597325 1.971 
145 745 -0.632804 -0.403967 1.039 
155 745 -1.922203 1.166956 1.456 
165 745 -2.450410 0.835149 1.399 
175 745 -2.582683 -0.799754 1.598 
185 745 -3.445116 -1.130613 1.849 
195 745 -3.194925 -0.566028 1.702 
205 745 -2.861679 -0.493479 1.522 
215 745 -2.268202 -0.342052 1.314 
225 745 -1.689447 0.077422 1.648 
235 745 -1.005704 0.597369 1.760 
245 745 -0.550389 0.538523 1.869 
255 745 -0.576804 0.411207 3.163 
265 745 -0.641557 0.207161 1.467 
275 745 -0.945834 0.719594 2.974 
285 745 -1.086780 0.792114 1.973 
295 745 -1.342398 0.606768 1.624 
305 745 -1.853154 0.692478 2.355 
315 745 -1.600434 1.087865 2.381 
325 745 -1.626817 1.251587 1.659 
335 745 -1.230895 0.868212 1.575 
345 745 -1.222149 0.868087 2.551 
355 745 -1.195424 1.529550 1.676 
365 745 -1.143878 1.003705 2.594 
375 745 -1.336184 0.324946 1.187 
385 745 -1.042020 0.427876 2.552 
395 745 -1.009682 0.627741 3.245 
405 745 -1.035956 0.424366 2.622 
415 745 -1.068943 -0.218601 1.538 
425 745 -1.284642 -0.686951 1.073 
435 745 -0.553746 -3.197767 1.126 
445 745 1.379535 -7.553689 1.467 
455 745 1.839831 -8.626131 1.645 
465 745 0.768106 -8.293680 1.346 
475 745 -0.578565 -4.619353 1.204 
485 745 -1.701955 0.026833 31.275 
495 745 -1.625453 0.155599 1.608 
505 745 -1.534125 0.928329 1.692 
515 745 -1.543645 1.487365 1.881 
525 745 -1.517861 1.445233 2.981 
535 745 -1.987817 1.525749 4.533 
545 745 -2.127261 1.865685 4.168 
555 745 -2.163154 2.011198 4.676 
565 745 -2.013952 2.080098 1.357 
575 745 -1.930559 2.234812 2.600 
585 745 -1.899488 2.298933 2.732 
595 745 -1.822895 2.146490 1.967 
605 745 -1.764752 1.678335 2.297 
615 745 -1.727638 1.237286 3.363 
625 745 -1.420411 0.464113 2.604 
635 745 -1.394249 0.051367 1.851 
645 745 -1.222246 0.155215 2.353 
655 745 -0.986539 0.591019 2.022 
665 745 -0.347727 1.067304 2.641 
675 745 -0.461789 1.327306 2.791 
685 745 -0.610782 1.405015 2.397 
695 745 -0.101742 0.847910 1.538 
705 745 0.016713 0.667243 1.731 
715 745 0.164442 0.438379 2.074 
725 745 0.409593 0.348567 2.279 
735 745 0.566232 0.295783 4.536 
745 745 0.299584 0.631091 1.419 
755 745 0.182355 1.375364 1.918 
765 745 -0.148075 1.207764 1.543 
775 745 -0.516397 0.548224 3.491 
785 745 -0.818787 0.307323 6.113 
795 745 -1.265699 0.489404 2.775 
805 745 -1.557194 0.922418 1.942 
815 745 -1.639564 1.027571 170.419 
825 745 -1.595865 0.993045 2.863 
835 745 -1.481114 0.751830 2.394 
845 745 -1.719508 0.971329 1.544 
855 745 -1.951254 1.120853 1.059 
865 745 -1.987519 0.829861 1.139 
875 745 -1.829968 0.474979 1.553 
885 745 -1.414830 0.110895 2.033 
895 745 -1.304231 0.078112 2.847 
905 745 -1.632520 0.122145 2.213 
915 745 -1.575895 -0.097609 2.082 
925 745 -1.767370 -0.130925 1.089 
935 745 -1.949590 -0.128301 2.506 
945 745 -2.306209 0.205071 1.530 
955 745 -2.118262 0.650802 2.161 
965 745 -2.015214 0.317909 2.499 
975 745 -1.589364 -0.820870 23.587 
985 745 -1.519936 -1.351453 20.000 
995 745 -1.603223 -1.263514 20.000 
1005 745 -1.735209 -0.699179 53.421 
1015 745 -1.490222 -0.538407 9.658 
1025 745 -1.178436 -0.576800 2.802 
1035 745 -1.264966 -0.595524 1.232 
1045 745 -1.371681 -0.786661 1.048 
1055 745 -1.798110 -0.903169 2.301 
1065 745 -2.059770 -1.388210 1.893 
1075 745 -2.100952 -2.204494 6.009 
1085 745 -1.829503 -2.187568 5.243 
1095 745 -1.963389 -1.832591 4.957 
1105 745 -2.036826 -1.411085 1.919 
1115 745 -2.063071 -1.037344 1.929 
1125 745 -2.303165 -1.174939 13.858 
1135 745 -2.443365 -1.044850 9.092 
1145 745 -2.743003 -0.537253 2.480 
1155 745 -2.503459 1.167665 2.024 
1165 745 -1.911341 0.394583 1.452 
1175 745 -0.519817 -8.785161 1.207 
1185 745 2.192143 -8.493765 1.149 
1195 745 3.983942 -5.177621 1.472 
1205 745 -1.920702 -2.516086 1.017 
1215 745 -5.462264 -3.869041 1.195 
1225 745 -4.137104 -3.744698 1.547 
1235 745 -5.967622 -4.724814 1.105 
1245 745 -4.690571 2.273277 1.104 
1255 745 -3.179196 -1.095697 1.011 
1265 745 -1.522743 -5.790645 1.198 
1275 745 -1.202909 -5.090323 1.171 
5 735 3.383199 6.755687 1.832 
15 735 4.407864 5.037872 1.832 
25 735 4.722838 3.408119 1.365 
35 735 3.959778 2.988831 1.040 
45 735 0.259893 0.974857 1.072 
55 735 -7.710109 -0.666766 1.588 
65 735 -11.574907 -0.450310 1.702 
75 735 -9.361310 -1.520958 1.184 
85 735 -9.441299 -2.269091 1.028 
95 735 -8.277495 -4.417266 1.781 
105 735 -3.097707 -5.075392 1.248 
115 735 -2.601164 -2.718693 1.029 
125 735 -1.063452 -2.706839 1.174 
135 735 -1.254746 -2.756663 1.830 
145 735 -2.103082 -2.063661 1.064 
155 735 -3.197784 0.806342 1.207 
165 735 -2.726014 1.224652 1.406 
175 735 -2.462353 -1.713347 1.040 
185 735 -2.658942 -1.745809 4.679 
195 735 -2.782772 -1.049430 1.460 
205 735 -2.935405 -0.839325 1.275 
215 735 -2.595808 -0.594447 2.140 
225 735 -2.051707 -0.404578 2.022 
235 735 -1.385437 -0.160935 4.027 
245 735 -0.593314 0.187286 1.374 
255 735 -0.632148 0.458475 1.310 
265 735 -0.684697 0.631769 2.326 
275 735 -0.878773 0.792406 1.571 
285 735 -1.083298 0.978550 1.608 
295 735 -1.069702 0.762280 1.866 
305 735 -1.275958 0.939367 4.075 
315 735 -1.383991 1.086569 2.811 
325 735 -1.819197 1.035207 1.350 
335 735 -2.144558 0.913927 1.382 
345 735 -1.555864 1.220861 1.729 
355 735 -1.189838 1.490510 1.015 
365 735 -0.744923 1.126475 3.744 
375 735 -0.971560 0.366457 2.136 
385 735 -1.434333 0.204509 1.128 
395 735 -1.207835 0.137897 1.230 
405 735 -1.221312 0.137349 1.049 
415 735 -0.805298 0.057853 1.500 
425 735 -1.076765 -0.148782 1.698 
435 735 -1.247070 -0.579202 1.295 
445 735 -0.386582 -3.677735 1.074 
455 735 -1.718462 0.690453 1.163 
465 735 -0.622536 -3.802556 1.777 
475 735 -1.234568 -1.676814 1.082 
485 735 -1.624596 0.172884 3.922 
495 735 -1.512405 0.276619 2.115 
505 735 -1.145517 0.641703 2.557 
515 735 -1.332344 0.854521 2.181 
525 735 -1.519171 1.067340 1.930 
535 735 -2.037626 1.143269 1.666 
545 735 -2.185859 1.632073 1.780 
555 735 -2.274978 1.968060 2.245 
565 735 -2.254269 2.211974 1.913 
575 735 -2.073774 2.278915 1.498 
585 735 -1.980497 2.163252 3.361 
595 735 -1.839456 2.044387 2.929 
605 735 -1.699097 1.747575 1.195 
615 735 -1.669190 1.294539 2.918 
625 735 -1.497281 0.850936 3.435 
635 735 -1.249273 0.511314 10.388 
645 735 -1.123603 0.525931 4.723 
655 735 -0.661492 0.659222 3.782 
665 735 -0.428981 1.069234 2.825 
675 735 -0.585118 1.597720 2.265 
685 735 -0.699322 1.740058 2.053 
695 735 -0.419048 1.535192 1.900 
705 735 -0.046568 0.980560 2.154 
715 735 0.206864 0.598895 3.936 
725 735 0.370198 0.120288 3.347 
735 735 0.080046 -0.196485 2.029 
745 735 -0.187449 0.630211 4.746 
755 735 -0.022417 1.342508 2.315 
765 735 -0.321854 1.298683 1.117 
775 735 -0.642127 0.358081 3.214 
785 735 -0.846524 0.049259 3.609 
795 735 -1.078162 0.119400 3.043 
805 735 -1.506804 0.626265 2.983 
815 735 -1.591292 0.848112 1.027 
825 735 -1.605408 0.836949 1.084 
835 735 -1.628977 0.777415 2.673 
845 735 -1.626684 0.929046 1.098 
855 735 -1.808185 1.064246 1.143 
865 735 -2.285190 0.626480 1.528 
875 735 -2.052520 0.282494 1.725 
885 735 -1.661183 0.021302 2.652 
895 735 -1.591023 -0.045022 2.216 
905 735 -1.718604 -0.110172 1.332 
915 735 -1.757715 0.038246 1.830 
925 735 -1.532791 -0.208217 1.019 
935 735 -1.468414 -0.430661 1.191 
945 735 -1.944011 0.157498 1.494 
955 735 -2.010846 0.595149 1.443 
965 735 -1.744091 0.379644 2.128 
975 735 -1.669509 -0.778452 1.033 
985 735 -1.818935 -1.002904 1.115 
995 735 -1.851932 -1.009561 2.599 
1005 735 -1.908981 -1.045767 1.888 
1015 735 -1.767989 -0.977485 5.089 
1025 735 -2.066164 -0.578877 2.166 