TITLE = "B00138"
VARIABLES = "x", "y", "u", "v", "sn"
ZONE T="Frame 0", I=128, J=80
5 795 0.000000 -0.000000 1.452 
15 795 0.000000 -0.000000 1.452 
25 795 7.000461 -4.708323 1.064 
35 795 1.432703 2.715269 1.060 
45 795 1.558480 2.770543 1.339 
55 795 1.684257 2.825817 1.275 
65 795 1.810034 2.881092 1.014 
75 795 2.143852 -3.798486 1.207 
85 795 0.503037 -3.629689 1.423 
95 795 0.066733 -3.472457 1.140 
105 795 -0.369570 -3.315225 1.414 
115 795 -0.805874 -3.157994 1.671 
125 795 -0.574099 -1.103811 2.233 
135 795 -0.520138 -0.078707 1.204 
145 795 -0.466177 0.946396 1.002 
155 795 -1.263426 1.485646 1.090 
165 795 -2.060675 2.024895 2.235 
175 795 -2.857924 2.564145 3.816 
185 795 -4.144531 4.593907 5.502 
195 795 -4.378596 4.608215 8.888 
205 795 -4.612662 4.622523 2.162 
215 795 -3.979715 4.355884 1.928 
225 795 -3.346768 4.089246 2.917 
235 795 -2.713821 3.822607 1.120 
245 795 -1.399093 2.695141 1.006 
255 795 -1.282310 -2.281944 2.288 
265 795 -1.840669 0.389869 1.670 
275 795 -2.399028 3.061681 1.050 
285 795 -3.105746 3.759193 1.391 
295 795 -3.221221 4.341800 1.226 
305 795 -3.165361 4.164020 1.937 
315 795 -3.224323 3.126822 1.190 
325 795 -2.943126 3.146980 1.142 
335 795 -2.661929 3.167138 1.272 
345 795 -2.791858 3.250599 1.355 
355 795 -2.921787 3.334061 1.839 
365 795 -2.902026 3.128065 1.623 
375 795 -2.922996 3.370620 2.030 
385 795 -2.987990 3.458123 1.339 
395 795 -2.491056 3.904232 1.823 
405 795 -1.994123 4.350340 1.856 
415 795 -3.269072 7.419927 1.432 
425 795 -4.544022 10.489514 1.098 
435 795 -4.007612 10.025300 1.206 
445 795 -3.822182 7.945410 1.073 
455 795 -2.802174 5.808159 1.093 
465 795 -1.782166 3.670908 1.568 
475 795 -2.251165 3.630025 5.087 
485 795 -2.935076 3.585668 1.482 
495 795 -3.417362 3.607748 1.095 
505 795 -3.411796 3.324088 3.208 
515 795 -3.434372 3.299572 1.704 
525 795 -3.629589 3.275300 1.755 
535 795 -3.776352 3.267401 11.163 
545 795 -3.923116 3.259502 17.908 
555 795 -3.825986 3.455170 5.865 
565 795 -4.025694 3.317111 1.263 
575 795 -4.166384 2.771694 2.163 
585 795 -4.185066 1.919929 4.036 
595 795 -4.031638 1.353890 1.948 
605 795 -3.780146 1.140148 2.972 
615 795 -3.759801 1.290511 4.090 
625 795 -3.804077 1.382027 2.366 
635 795 -3.717279 1.461832 1.804 
645 795 -3.692910 1.996146 1.089 
655 795 -3.956825 1.802176 1.450 
665 795 -4.067817 1.510837 2.466 
675 795 -4.194287 1.554965 3.891 
685 795 -4.088914 1.805373 1.226 
695 795 -4.282017 1.667515 2.233 
705 795 -4.503954 1.314914 3.202 
715 795 -4.381513 1.347300 3.088 
725 795 -4.575182 1.569374 1.369 
735 795 -4.768852 1.791449 1.984 
745 795 -4.594983 1.870677 4.243 
755 795 -4.500245 2.339266 9.039 
765 795 -4.588434 2.666658 39.978 
775 795 -4.764284 2.674100 1.848 
785 795 -4.837351 2.388178 1.857 
795 795 -4.801294 2.209403 2.784 
805 795 -4.915189 1.803172 1.561 
815 795 -5.690312 1.589697 2.259 
825 795 -6.948722 1.744235 1.295 
835 795 -5.571090 -0.716732 1.119 
845 795 -4.193458 -3.177699 1.003 
855 795 -2.815827 -5.638666 1.706 
865 795 -1.438195 -8.099632 1.945 
875 795 -6.256769 -0.635613 1.296 
885 795 -6.704165 -0.321085 1.774 
895 795 -6.493909 -0.543846 1.071 
905 795 -5.905843 -0.712505 1.150 
915 795 -5.179490 -0.263125 1.135 
925 795 -4.268251 0.305458 1.106 
935 795 -4.040280 0.462092 1.171 
945 795 -5.672045 -0.026845 1.364 
955 795 -6.324966 -0.171068 2.674 
965 795 -6.729808 0.230702 3.438 
975 795 -6.982155 0.712157 2.561 
985 795 -7.231166 0.872320 7.537 
995 795 -7.390704 0.698407 1.349 
1005 795 -7.177276 0.010997 1.088 
1015 795 -7.029573 -0.022283 1.343 
1025 795 -6.881871 -0.055563 2.168 
1035 795 -6.734168 -0.088843 1.072 
1045 795 -6.813209 -0.406713 1.649 
1055 795 -6.892249 -0.724583 1.921 
1065 795 -6.563669 -0.536994 1.263 
1075 795 -5.949524 -1.238160 1.845 
1085 795 -5.335378 -1.939326 1.639 
1095 795 -4.721233 -2.640492 1.344 
1105 795 -3.111788 -10.724019 1.099 
1115 795 -1.502343 -18.807545 1.491 
1125 795 0.703318 -19.650934 1.016 
1135 795 2.908980 -20.494322 1.072 
1145 795 3.301462 -21.290945 1.156 
1155 795 3.693945 -22.087568 1.017 
1165 795 4.086428 -22.884191 1.150 
1175 795 3.945807 -24.439244 1.153 
1185 795 3.123218 -24.503271 1.045 
1195 795 2.300630 -24.567298 1.120 
1205 795 1.478041 -24.631325 1.250 
1215 795 0.376422 -20.483494 1.514 
1225 795 2.099573 -12.736249 1.214 
1235 795 3.216605 -8.398868 1.031 
1245 795 2.676254 -7.306081 1.138 
1255 795 0.958687 -6.703841 1.067 
1265 795 -1.084694 -4.417016 1.145 
1275 795 0.000000 -0.000000 1.236 
5 785 12.901184 -9.010057 1.452 
15 785 11.671175 -7.209114 1.452 
25 785 10.441167 -5.408171 1.064 
35 785 4.496771 2.030380 1.060 
45 785 1.332017 7.087908 1.339 
55 785 1.978969 7.443853 1.275 
65 785 2.415841 0.503611 1.014 
75 785 2.508790 -3.549430 1.207 
85 785 0.355392 -3.254783 1.423 
95 785 -1.118147 -3.644605 1.140 
105 785 -1.931074 -3.506194 1.414 
115 785 -2.263716 -1.324403 1.671 
125 785 -2.469340 3.814420 2.233 
135 785 -3.282092 2.936972 1.204 
145 785 -3.570099 2.233748 1.002 
155 785 -2.257045 2.085596 1.090 
165 785 -0.943991 1.937443 2.235 
175 785 -3.865983 3.076841 3.816 
185 785 -4.572630 4.645454 5.502 
195 785 -4.524151 4.834451 8.888 
205 785 -4.712455 4.436755 2.162 
215 785 -4.526725 4.321580 1.928 
225 785 -4.133603 4.759893 2.917 
235 785 -3.287070 4.403929 1.120 
245 785 -2.477476 3.300761 1.006 
255 785 -2.145618 -2.066234 2.288 
265 785 -2.372208 -0.228512 1.670 
275 785 -2.693916 3.464456 1.050 
285 785 -3.278193 3.695796 1.391 
295 785 -3.356204 4.019749 1.226 
305 785 -3.348841 3.908495 1.937 
315 785 -3.410736 2.888668 1.190 
325 785 -3.086885 3.009667 1.142 
335 785 -2.763033 3.130666 1.272 
345 785 -2.750330 3.883750 1.355 
355 785 -2.976984 3.462780 1.839 
365 785 -2.873014 3.391771 1.623 
375 785 -2.910314 3.575432 2.030 
385 785 -2.964013 3.588050 1.339 
395 785 -2.610349 4.017766 1.823 
405 785 -2.759767 5.457375 1.856 
415 785 -3.950306 10.573273 1.432 
425 785 -4.316490 11.431685 1.098 
435 785 -4.571233 10.738822 1.206 
445 785 -4.115611 8.412864 1.073 
455 785 -0.809230 3.630118 1.093 
465 785 -1.832182 3.635521 1.568 
475 785 -2.329471 3.568205 5.087 
485 785 -2.883137 3.528486 1.482 
495 785 -3.286888 3.556077 1.095 
505 785 -3.295281 3.291109 3.208 
515 785 -3.378570 3.356512 1.704 
525 785 -3.418336 3.376030 1.755 
535 785 -3.619772 3.360624 11.163 
545 785 -3.542583 3.434550 17.908 
555 785 -3.548497 3.657863 5.865 
565 785 -3.777387 3.480672 1.263 
575 785 -3.998280 2.896784 2.163 
585 785 -4.162099 2.062680 4.036 
595 785 -4.078618 1.452903 1.948 
605 785 -3.857793 1.252325 2.972 
615 785 -3.815812 1.386516 4.090 
625 785 -3.835793 1.415189 2.366 
635 785 -3.704437 1.408227 1.804 
645 785 -3.691876 1.916255 1.089 
655 785 -3.948029 1.743880 1.450 
665 785 -4.056116 1.482138 2.466 
675 785 -4.184122 1.566245 3.891 
685 785 -4.071340 1.827698 1.226 
695 785 -4.281488 1.676382 2.233 
705 785 -4.413733 1.286883 3.202 
715 785 -4.237734 1.194419 3.088 
725 785 -4.281386 1.299249 1.369 
735 785 -4.442092 1.393855 1.984 
745 785 -4.426088 1.708602 4.243 
755 785 -4.475205 2.236412 9.039 
765 785 -4.672135 2.563468 39.978 
775 785 -4.837891 2.611639 1.848 
785 785 -4.871042 2.376797 1.857 
795 785 -4.894915 2.154929 2.784 
805 785 -5.086370 1.639402 1.561 
815 785 -5.822101 1.404383 2.259 
825 785 -6.618628 1.281351 1.295 
835 785 -3.816580 -0.221537 1.119 
845 785 -1.014532 -1.724426 1.003 
855 785 -2.052432 -5.509834 1.706 
865 785 -4.718017 -2.229737 1.945 
875 785 -7.383602 1.050359 1.296 
885 785 -7.352516 0.493823 1.774 
895 785 -6.714805 -0.368510 1.071 
905 785 -6.078275 -0.514405 1.150 
915 785 -5.363978 -0.124224 1.135 
925 785 -4.583043 0.361189 1.106 
935 785 -4.371490 0.539859 1.171 
945 785 -5.850017 0.090364 1.364 
955 785 -6.327266 -0.047496 2.674 
965 785 -6.734987 0.258130 3.438 
975 785 -6.991664 0.695125 2.561 
985 785 -7.188472 0.843983 7.537 
995 785 -7.283060 0.676411 1.349 
1005 785 -7.098563 0.041844 1.088 
1015 785 -6.890374 -0.205181 1.343 
1025 785 -6.359743 0.086472 2.168 
1035 785 -6.848066 0.022134 1.072 
1045 785 -7.478895 -0.169591 1.649 
1055 785 -6.976334 0.036682 1.921 
1065 785 -6.049894 0.831425 1.263 
1075 785 -6.540930 1.264033 1.845 
1085 785 -6.275727 1.098180 1.639 
1095 785 -6.655991 0.501318 1.344 
1105 785 -5.355542 -6.356190 1.099 
1115 785 -4.055094 -13.213697 1.491 
1125 785 0.067976 -12.251171 1.016 
1135 785 -0.112698 -14.585712 1.072 
1145 785 1.278536 -16.928933 1.156 
1155 785 2.372953 -18.809409 1.017 
1165 785 2.964718 -19.268357 1.150 
1175 785 3.453475 -21.248801 1.153 
1185 785 3.460675 -23.846218 1.045 
1195 785 3.046276 -24.273229 1.120 
1205 785 0.807000 -23.199849 1.250 
1215 785 0.361535 -19.251139 1.514 
1225 785 2.144879 -12.514382 1.214 
1235 785 2.963126 -8.363729 1.031 
1245 785 2.794368 -7.754917 1.138 
1255 785 1.804476 -7.047162 1.067 
1265 785 -0.128235 -4.100955 1.145 
1275 785 0.000000 -0.000000 1.236 
5 775 11.881792 -8.266149 1.209 
15 775 7.457756 -9.196969 1.209 
25 775 6.922260 -4.275262 1.013 
35 775 6.386765 0.646445 1.049 
45 775 5.259153 -0.414665 1.112 
55 775 3.881466 -1.365872 1.694 
65 775 3.021649 -1.873869 1.486 
75 775 1.688388 -2.285351 1.102 
85 775 -0.118091 -1.830120 1.015 
95 775 -1.705393 -0.228966 1.262 
105 775 -2.145533 0.471658 1.515 
115 775 -1.936372 1.800339 1.006 
125 775 -1.439281 8.732196 1.121 
135 775 -3.872940 5.889672 1.004 
145 775 -3.492817 4.139384 1.906 
155 775 -3.112693 2.389097 1.678 
165 775 -3.217960 3.338491 1.005 
175 775 -4.165513 4.154319 1.338 
185 775 -4.642942 4.614994 1.074 
195 775 -4.677866 4.413743 1.640 
205 775 -4.642832 3.883397 1.001 
215 775 -4.752412 4.417225 1.030 
225 775 -4.616869 5.269015 1.068 
235 775 -3.860319 4.985252 1.026 
245 775 -3.555859 3.906382 2.696 
255 775 -3.335582 2.480184 2.017 
265 775 -3.146049 1.713038 1.032 
275 775 -3.013536 2.469492 1.492 
285 775 -3.437078 3.422867 1.023 
295 775 -3.357609 3.525977 1.813 
305 775 -3.233489 3.312821 1.286 
315 775 -3.165760 2.701863 1.116 
325 775 -2.895475 2.452880 1.308 
335 775 -2.486667 3.276282 1.348 
345 775 -2.743209 3.847856 1.002 
355 775 -2.669142 4.047764 1.499 
365 775 -2.482579 4.046357 2.343 
375 775 -2.505873 4.409215 1.317 
385 775 -2.272559 4.371315 1.637 
395 775 -2.456581 4.555385 1.183 
405 775 -2.640604 4.739455 1.009 
415 775 -3.434629 7.471916 1.292 
425 775 -4.088957 12.373855 1.208 
435 775 -3.704541 9.837758 2.209 
445 775 -1.516892 5.519853 1.517 
455 775 -1.147446 3.582567 1.768 
465 775 -1.879930 3.496370 4.063 
475 775 -2.172429 3.229061 3.558 
485 775 -2.615745 3.251793 2.329 
495 775 -3.045752 3.269243 1.176 
505 775 -2.748375 3.502347 2.158 
515 775 -2.935212 3.543621 1.669 
525 775 -3.060828 3.352376 2.950 
535 775 -2.810648 3.675503 2.511 
545 775 -2.335368 3.786364 1.542 
555 775 -2.822357 3.915356 1.558 
565 775 -3.746227 3.636085 2.748 
575 775 -3.989509 2.874529 2.592 
585 775 -4.162131 2.166921 2.663 
595 775 -4.381602 1.802366 6.260 
605 775 -4.274480 1.686858 6.196 
615 775 -3.826675 1.587892 5.429 
625 775 -3.766640 1.473621 6.488 
635 775 -3.767302 1.441413 1.694 
645 775 -3.649783 1.593646 2.427 
655 775 -3.903642 1.640330 6.574 
665 775 -4.185974 1.591395 2.829 
675 775 -4.228520 1.755027 3.645 
685 775 -4.106310 1.984392 1.222 
695 775 -4.181974 1.841000 3.082 
705 775 -4.278544 1.372314 2.634 
715 775 -4.243673 1.064403 1.960 
725 775 -4.206613 0.853157 2.626 
735 775 -4.124992 0.967233 1.514 
745 775 -4.204215 1.442121 2.057 
755 775 -4.436034 2.041980 4.025 
765 775 -4.728313 2.465086 2.411 
775 775 -5.153315 2.500710 2.957 
785 775 -4.797730 2.247803 3.436 
795 775 -4.896030 1.863813 1.891 
805 775 -5.241111 1.111083 1.775 
815 775 -5.843974 0.576416 1.690 
825 775 -6.228608 0.743201 1.863 
835 775 -6.258512 1.658766 1.735 
845 775 -6.321280 1.962057 3.224 
855 775 -6.350948 1.053236 1.027 
865 775 -7.158007 0.949183 1.258 
875 775 -7.965066 0.845129 1.440 
885 775 -7.843238 0.631057 2.307 
895 775 -6.988212 -0.145105 2.015 
905 775 -6.507715 -0.102494 2.522 
915 775 -5.829828 -0.091340 2.071 
925 775 -5.282480 0.688696 3.318 
935 775 -5.379372 0.557744 1.027 
945 775 -6.182145 0.391459 1.825 
955 775 -6.559279 0.337319 3.899 
965 775 -6.814069 0.711915 6.909 
975 775 -6.975631 0.800840 2.453 
985 775 -7.042659 0.757771 2.810 
995 775 -6.910443 0.564373 1.623 
1005 775 -6.603568 0.357276 1.901 
1015 775 -7.163572 -0.032596 2.583 
1025 775 -7.157145 0.088451 1.433 
1035 775 -7.150717 0.209497 1.105 
1045 775 -7.208859 -0.094079 1.003 
1055 775 -6.687415 0.337894 1.452 
1065 775 -5.573185 1.430316 1.004 
1075 775 -5.815671 2.090590 1.358 
1085 775 -6.098694 2.961625 1.030 
1095 775 -6.636564 1.789640 1.772 
1105 775 -7.282249 0.758869 2.959 
1115 775 -8.138190 -0.295574 1.877 
1125 775 -5.839123 -2.130580 1.295 
1135 775 -2.458830 -8.416241 1.059 
1145 775 -1.802290 -11.855784 1.048 
1155 775 0.293897 -13.669687 1.229 
1165 775 1.247166 -15.091642 1.364 
1175 775 1.727494 -18.860630 1.174 
1185 775 2.449592 -20.791646 1.647 
1195 775 2.442431 -22.248969 1.152 
1205 775 0.905044 -21.310085 1.401 
1215 775 0.507619 -18.015614 1.321 
1225 775 2.073410 -12.695403 1.970 
1235 775 2.709647 -8.328590 1.053 
1245 775 1.634797 -7.540699 1.064 
1255 775 1.999263 -7.650962 1.051 
1265 775 1.500082 -5.661193 1.286 
1275 775 0.851289 -2.346371 1.281 
5 765 10.862399 -7.522240 1.234 
15 765 6.888596 -8.689968 1.234 
25 765 6.712738 -4.762392 1.398 
35 765 6.536880 -0.834817 1.656 
45 765 5.099215 -1.555495 1.336 
55 765 3.418812 -2.192226 1.120 
65 765 2.134216 -2.406173 1.100 
75 765 -1.759257 -2.748110 1.010 
85 765 -3.557943 0.176515 1.399 
95 765 -2.009383 2.145697 1.286 
105 765 -1.479637 5.171495 1.087 
115 765 -0.949890 8.197293 1.051 
125 765 -1.581491 11.214995 1.469 
135 765 -2.938576 8.955090 1.234 
145 765 -3.233905 6.235489 1.296 
155 765 -3.529235 3.515889 6.065 
165 765 -3.323109 3.915664 3.825 
175 765 -4.776444 4.157709 1.270 
185 765 -4.556959 4.203914 1.601 
195 765 -4.878653 3.645221 1.411 
205 765 -4.813380 3.424904 1.281 
215 765 -5.033141 3.851177 1.106 
225 765 -4.990947 4.402729 1.225 
235 765 -4.425597 5.074181 2.095 
245 765 -4.292058 4.576290 2.328 
255 765 -4.216471 3.179713 2.071 
265 765 -4.006147 2.152970 1.108 
275 765 -3.748009 2.864173 7.875 
285 765 -3.533838 2.930682 7.175 
295 765 -3.284045 3.244843 2.417 
305 765 -3.259217 3.171774 1.107 
315 765 -2.939400 2.711582 1.423 
325 765 -2.700068 2.715717 1.083 
335 765 -2.718232 3.139739 1.407 
345 765 -2.748380 3.812005 1.954 
355 765 -2.534572 4.321923 1.066 
365 765 -2.280108 4.445273 1.073 
375 765 -2.236713 4.859371 1.386 
385 765 -2.475945 4.586287 1.435 
395 765 -2.388363 4.114069 1.167 
405 765 -2.300780 3.641851 3.451 
415 765 -2.918952 4.370560 1.120 
425 765 -2.989742 5.337346 1.169 
435 765 -2.186587 4.868218 1.676 
445 765 -1.797077 4.410604 1.328 
455 765 -1.485662 3.535016 1.785 
465 765 -1.892673 3.293281 5.328 
475 765 -1.969339 3.199183 3.325 
485 765 -2.134303 3.287144 2.515 
495 765 -2.694415 3.098971 1.630 
505 765 -2.459568 3.389030 2.841 
515 765 -2.808979 3.543872 2.478 
525 765 -2.842547 3.535233 2.022 
535 765 -2.153220 3.633963 1.371 
545 765 -2.066776 3.763717 1.851 
555 765 -2.492498 3.844222 3.012 
565 765 -3.026369 3.823621 2.233 
575 765 -3.327703 3.171168 3.907 
585 765 -3.888259 2.336566 3.135 
595 765 -4.235429 2.032952 4.101 
605 765 -4.229390 1.906828 2.751 
615 765 -3.906419 1.880484 4.686 
625 765 -3.530993 1.749201 5.029 
635 765 -3.619810 1.587581 2.470 
645 765 -3.601707 1.653589 4.152 
655 765 -3.812182 1.613508 20.000 
665 765 -4.225363 1.663020 3.534 
675 765 -4.187017 1.801885 2.248 
685 765 -4.121348 2.095235 3.472 
695 765 -4.117833 1.919377 5.719 
705 765 -4.007229 1.808410 2.416 
715 765 -3.875118 1.133834 1.482 
725 765 -4.241683 0.451008 2.620 
735 765 -4.207970 0.669089 5.565 
745 765 -4.076161 1.334079 3.600 
755 765 -4.370020 1.910692 3.055 
765 765 -4.955880 2.421149 2.251 
775 765 -5.183614 2.814754 1.593 
785 765 -4.943295 2.455318 2.593 
795 765 -5.073707 1.662987 3.334 
805 765 -5.425530 0.688729 2.777 
815 765 -5.909611 0.383322 1.850 
825 765 -6.020639 0.757260 2.590 
835 765 -6.226949 1.651986 2.548 
845 765 -6.387689 1.530704 2.182 
855 765 -6.546191 0.716762 4.441 
865 765 -7.135680 0.722800 2.058 
875 765 -7.930904 0.674844 1.945 
885 765 -7.799210 0.077277 1.793 
895 765 -6.950634 -0.024019 2.522 
905 765 -6.442102 -0.113973 2.458 
915 765 -6.213234 -0.073723 2.203 
925 765 -6.186489 0.343028 2.486 
935 765 -6.324883 0.638569 2.072 
945 765 -6.794731 0.626677 1.606 
955 765 -6.740907 0.474295 3.834 
965 765 -6.929098 0.507968 3.200 
975 765 -7.089240 0.791200 1.971 
985 765 -7.203341 0.840136 1.350 
995 765 -6.939315 0.465822 1.052 
1005 765 -6.644544 0.295887 1.316 
1015 765 -7.321472 0.072971 2.048 
1025 765 -7.197892 -0.104208 1.030 
1035 765 -7.074313 -0.281387 1.378 
1045 765 -7.068244 -0.095458 1.311 
1055 765 -6.735709 0.231403 1.348 
1065 765 -6.286747 1.320792 1.321 
1075 765 -5.090412 2.917147 1.056 
1085 765 -6.291930 2.536842 1.575 
1095 765 -7.034584 1.409967 2.983 
1105 765 -7.089151 0.923292 9.633 
1115 765 -7.280788 0.845455 1.859 
1125 765 -7.214504 0.653788 1.037 
1135 765 -5.769666 -2.700820 1.103 
1145 765 -3.555017 -6.656863 2.076 
1155 765 -2.922207 -7.839865 1.535 
1165 765 -3.073481 -8.969921 1.245 
1175 765 -0.585036 -13.537051 1.005 
1185 765 1.305546 -16.928327 1.018 
1195 765 0.389777 -21.105215 1.107 
1205 765 0.529263 -18.995380 1.061 
1215 765 0.501735 -16.438459 1.123 
1225 765 2.041931 -12.637490 1.338 
1235 765 1.959807 -9.839749 1.075 
1245 765 1.877684 -7.042009 1.188 
1255 765 1.736179 -7.204694 1.048 
1265 765 1.615249 -4.514656 1.217 
1275 765 2.237820 -4.582223 1.206 
5 755 9.843007 -6.778331 1.226 
15 755 6.582914 -7.756311 1.226 
25 755 7.210801 -3.356334 1.015 
35 755 5.481835 -2.684296 1.113 
45 755 3.912988 -1.247665 1.076 
55 755 2.179829 -1.838492 1.217 
65 755 1.246783 -2.938477 1.026 
75 755 -2.603731 -1.901975 1.218 
85 755 -4.255327 0.454938 1.778 
95 755 -6.240236 0.927598 1.633 
105 755 -3.223523 6.625734 1.011 
115 755 -0.206811 12.323870 1.114 
125 755 -1.723701 13.697794 1.053 
135 755 -3.889461 10.483845 1.185 
145 755 -5.088138 5.894404 6.705 
155 755 -3.983969 4.713685 1.135 
165 755 -3.058053 4.221018 1.028 
175 755 -3.888804 4.007620 1.191 
185 755 -4.470977 3.792834 1.554 
195 755 -4.451438 3.218578 2.269 
205 755 -4.710634 2.740317 1.274 
215 755 -4.852035 3.440994 1.017 
225 755 -4.784389 4.352581 1.277 
235 755 -4.990876 5.163111 1.704 
245 755 -4.416194 4.206149 1.557 
255 755 -4.277954 3.499716 1.038 
265 755 -3.987241 2.817015 2.265 
275 755 -3.784626 2.522221 1.915 
285 755 -3.601536 2.706814 3.747 
295 755 -3.452594 3.042258 3.146 
305 755 -3.343324 2.871333 1.228 
315 755 -3.152179 2.436492 4.340 
325 755 -3.314066 2.285433 8.380 
335 755 -2.949796 3.003195 1.920 
345 755 -2.907989 3.863969 1.943 
355 755 -2.340850 4.405356 1.226 
365 755 -1.990199 4.765378 1.305 
375 755 -2.326894 4.700818 1.120 
385 755 -2.735529 4.625043 1.333 
395 755 -2.204894 4.533264 1.627 
405 755 -2.332592 4.151660 5.635 
415 755 -2.445708 4.072641 1.899 
425 755 -2.501194 4.313486 1.267 
435 755 -2.315490 4.206168 1.540 
445 755 -2.068046 4.125935 3.543 
455 755 -2.092712 3.626286 7.560 
465 755 -1.973152 3.292022 2.537 
475 755 -1.903138 3.089077 1.404 
485 755 -2.117757 3.143016 1.333 
495 755 -2.398159 2.919818 3.585 
505 755 -2.402912 3.159163 1.652 
515 755 -2.884877 3.325373 1.767 
525 755 -3.034226 3.398014 2.118 
535 755 -2.272893 3.487437 1.359 
545 755 -2.292429 3.472809 2.330 
555 755 -2.360005 3.545462 2.498 
565 755 -2.340037 3.588656 2.421 
575 755 -2.773987 3.219888 1.843 
585 755 -3.186166 2.637153 1.701 
595 755 -3.636318 2.202845 2.307 
605 755 -3.841513 2.101286 2.641 
615 755 -3.733515 1.991826 6.036 
625 755 -3.350470 1.883022 7.134 
635 755 -3.460965 1.762681 2.840 
645 755 -3.411327 1.678570 4.026 
655 755 -3.528881 1.528933 4.840 
665 755 -3.993312 1.498711 1.800 
675 755 -3.977970 1.762445 2.049 
685 755 -3.993367 2.040801 1.917 
695 755 -4.080074 1.699813 2.022 
705 755 -3.852168 1.456304 1.634 
715 755 -3.701122 0.911370 2.129 
725 755 -4.336135 0.163596 7.452 
735 755 -4.428967 0.362130 4.996 
745 755 -4.405066 1.246730 2.733 
755 755 -4.618729 1.975789 2.766 
765 755 -5.009598 2.558235 1.701 
775 755 -5.213912 3.128798 1.358 
785 755 -5.069598 2.712019 1.681 
795 755 -5.229323 1.808057 6.032 
805 755 -5.728654 0.774545 3.695 
815 755 -5.982883 0.626521 2.591 
825 755 -6.075690 1.375088 2.736 
835 755 -6.290030 1.667586 1.981 
845 755 -6.543963 1.224407 4.106 
855 755 -6.755887 0.561664 5.367 
865 755 -7.263056 0.573694 5.303 
875 755 -7.615723 0.833949 2.644 
885 755 -7.470702 0.544569 3.911 
895 755 -6.709058 0.129667 1.896 
905 755 -6.376490 -0.125452 2.386 
915 755 -6.346544 -0.031286 2.916 
925 755 -6.499653 0.290828 2.918 
935 755 -6.982932 0.541862 1.516 
945 755 -6.808290 0.744416 1.500 
955 755 -6.384745 0.452160 3.170 
965 755 -6.601963 0.318413 2.563 
975 755 -7.115687 0.610959 3.828 
985 755 -7.151564 0.599038 2.183 
995 755 -6.966762 0.307412 1.329 
1005 755 -6.631842 0.221099 1.101 
1015 755 -6.946751 0.308631 1.378 
1025 755 -6.850340 0.047257 1.008 
1035 755 -7.049227 0.156145 2.432 
1045 755 -7.079951 0.153289 1.353 
1055 755 -7.274962 0.354738 1.629 
1065 755 -7.000309 1.211268 2.064 
1075 755 -6.528541 2.054671 1.367 
1085 755 -6.485167 2.112058 1.004 
1095 755 -7.257319 0.681363 6.281 
1105 755 -7.239600 0.202320 7.170 
1115 755 -7.256270 0.582226 2.129 
1125 755 -7.514714 0.600832 1.030 
1135 755 -7.054030 1.478849 20.000 
1145 755 -6.135943 1.401617 1.141 
1155 755 -4.282276 -4.683491 1.131 
1165 755 -4.014060 -4.977699 1.601 
1175 755 -1.874062 -8.856672 1.222 
1185 755 -1.422983 -13.283312 1.044 
1195 755 -1.288982 -15.993198 1.050 
1205 755 -1.154981 -18.703083 1.201 
1215 755 -0.217963 -14.890709 1.503 
1225 755 1.657402 -11.497047 1.366 
1235 755 1.501821 -9.297720 1.029 
1245 755 1.346240 -7.098393 1.416 
1255 755 0.485297 -6.163799 1.119 
1265 755 1.730415 -3.368119 1.275 
1275 755 0.258737 -3.231812 1.269 
5 745 8.823614 -6.034423 1.008 
15 745 6.277231 -6.822655 1.008 
25 745 6.366305 -4.491797 1.248 
35 745 3.711048 -3.070767 1.031 
45 745 0.361822 -0.881301 1.295 
55 745 0.579821 -1.055357 1.268 
65 745 -0.157984 -0.539117 1.278 
75 745 -1.051557 0.070099 1.422 
85 745 -4.952710 0.733362 1.003 
95 745 -3.165706 -0.943755 1.208 
105 745 -1.825626 3.343729 1.016 
115 745 -0.104824 14.218318 1.032 
125 745 -2.544025 10.005501 1.988 
135 745 -4.915774 8.365874 15.916 
145 745 -4.939822 5.936560 8.727 
155 745 -3.904080 5.054867 1.557 
165 745 -3.001291 4.343522 3.638 
175 745 -2.862426 3.852082 26.906 
185 745 -3.134477 3.444596 2.169 
195 745 -3.372284 2.869640 3.236 
205 745 -3.710773 2.246805 2.523 
215 745 -3.998184 2.346165 1.414 
225 745 -3.367999 3.071601 2.152 
235 745 -3.617177 3.382132 2.088 
245 745 -4.334500 3.721881 1.540 
255 745 -4.060246 3.316717 1.082 
265 745 -3.831305 2.631424 1.957 
275 745 -3.541558 2.593715 1.675 
285 745 -3.309887 2.578694 2.123 
295 745 -3.278456 2.733966 1.728 
305 745 -3.166907 2.696027 2.198 
315 745 -3.364959 2.161402 14.550 
325 745 -3.130769 2.182113 12.034 
335 745 -2.712076 3.149678 10.431 
345 745 -1.722337 4.051148 1.675 
355 745 -1.553024 4.529888 1.439 
365 745 -1.539522 4.834867 1.499 
375 745 -2.417075 4.542264 1.841 
385 745 -2.844345 4.437186 1.130 
395 745 -2.356852 4.667414 2.427 
405 745 -2.267658 4.335746 3.279 
415 745 -2.237475 4.154559 3.257 
425 745 -2.161981 4.151028 2.029 
435 745 -2.144820 4.258906 1.916 
445 745 -2.252224 4.215233 5.737 
455 745 -2.325569 3.784905 5.668 
465 745 -2.100147 3.301966 2.658 
475 745 -1.848348 2.955606 1.788 
485 745 -2.109807 2.999234 1.016 
495 745 -1.972609 3.007446 18.872 
505 745 -2.111435 3.064406 3.103 
515 745 -2.673196 3.171688 1.568 
525 745 -3.143244 3.471553 6.107 
535 745 -2.497404 3.559931 1.453 
545 745 -2.622395 3.703137 3.022 
555 745 -2.510536 3.608423 1.630 
565 745 -2.395142 3.455043 4.342 
575 745 -2.740159 3.339714 3.368 
585 745 -3.017526 2.934924 2.420 
595 745 -3.227375 2.416969 1.323 
605 745 -3.282833 2.227000 2.068 
615 745 -3.322024 1.996001 4.927 
625 745 -3.171971 1.880219 2.728 
635 745 -3.354690 1.971457 5.334 
645 745 -3.166734 1.700577 4.161 
655 745 -3.355451 1.569684 2.057 
665 745 -3.429902 1.367096 1.707 
675 745 -3.820041 1.889178 1.630 
685 745 -3.943343 1.938532 2.731 
695 745 -4.174878 1.568204 3.086 
705 745 -4.049640 1.331695 1.513 
715 745 -3.797596 0.900689 1.804 
725 745 -4.200965 0.302163 1.966 
735 745 -4.300393 0.626323 1.625 
745 745 -4.317512 1.413443 1.382 
755 745 -4.615040 2.009005 3.321 
765 745 -4.476913 2.852349 1.831 
775 745 -4.775484 3.143135 2.259 
785 745 -5.090991 2.882755 1.405 
795 745 -5.234275 1.614176 3.187 
805 745 -5.898979 0.741221 2.751 
815 745 -6.013054 0.531858 2.770 
825 745 -6.088937 1.274467 1.866 
835 745 -6.420880 1.282090 2.098 
845 745 -6.841049 0.770062 3.059 
855 745 -6.919785 0.178177 2.249 
865 745 -7.390431 0.424589 1.432 
875 745 -7.683161 0.520356 2.739 
885 745 -7.640984 0.479257 2.255 
895 745 -6.717228 0.109126 1.796 
905 745 -6.293114 0.060693 3.272 
915 745 -6.233035 0.171985 3.963 
925 745 -6.388756 0.272114 2.255 
935 745 -6.710452 0.495956 2.106 
945 745 -6.713388 0.478957 1.864 
955 745 -6.139982 0.282241 2.271 
965 745 -6.336694 -0.003036 5.060 
975 745 -6.829471 0.291748 1.679 
985 745 -7.099787 0.357941 1.743 
995 745 -6.894407 0.123351 2.222 
1005 745 -6.590948 0.140556 2.404 
1015 745 -6.572030 0.544292 2.008 
1025 745 -6.560560 0.452901 5.957 
1035 745 -7.024142 0.593677 2.697 
1045 745 -7.243204 0.437519 3.504 
1055 745 -7.516876 0.212216 2.671 
1065 745 -7.374427 0.588330 1.871 
1075 745 -7.396643 0.968667 1.176 
1085 745 -7.515625 0.810360 2.815 
1095 745 -7.280612 0.078374 20.000 
1105 745 -7.167615 -0.197440 8.354 
1115 745 -7.290093 -0.050927 3.132 
1125 745 -7.814924 0.547875 3.372 
1135 745 -7.690274 1.009245 3.286 
1145 745 -7.147117 0.486102 1.758 
1155 745 -5.642346 -1.527117 1.842 
1165 745 -3.363750 -3.923119 1.424 
1175 745 -0.396380 -7.340505 1.553 
1185 745 0.423096 -10.692312 1.154 
1195 745 -0.339919 -13.767176 1.194 
1205 745 -1.102933 -16.842040 1.807 
1215 745 0.907254 -13.539698 1.707 
1225 745 1.289442 -10.995334 1.215 
1235 745 0.739369 -11.480603 1.021 
1245 745 -2.298006 -12.215473 1.029 
1255 745 -3.423416 -7.738000 1.306 
1265 745 -1.584088 -5.811507 1.200 
1275 745 -1.720346 -1.881401 1.218 
5 735 7.804222 -5.290514 1.803 
15 735 5.971549 -5.888999 1.803 
25 735 4.377014 -5.368769 1.038 
35 735 1.091962 -3.549116 1.089 
45 735 0.459077 -2.175247 1.794 
55 735 -0.173808 -0.801377 1.770 
65 735 0.837978 -0.887502 1.317 
75 735 0.765959 -0.095077 1.950 
85 735 -0.176575 0.171623 1.808 
95 735 -0.091177 -2.815109 1.074 
105 735 0.868182 -5.114730 1.841 
115 735 -0.229430 3.905790 1.024 
125 735 -3.214551 5.741710 1.841 
135 735 -5.942087 6.247904 47.786 
145 735 -5.082905 5.780168 1.522 
155 735 -3.648497 5.247046 1.455 
165 735 -2.558024 4.426111 8.465 
175 735 -2.208905 3.873415 20.000 
185 735 -2.340532 3.475208 20.000 
195 735 -2.751477 2.752177 3.440 
205 735 -3.243034 1.891758 11.269 
215 735 -3.468968 1.826792 2.772 
225 735 -2.957475 2.402796 3.232 
235 735 -3.166155 2.896128 2.281 
245 735 -4.314109 3.358662 1.634 
255 735 -3.776585 3.212992 1.444 
265 735 -3.516780 3.175183 2.731 
275 735 -3.303740 2.637558 2.549 
285 735 -3.078300 2.461296 1.033 
295 735 -2.875149 2.862974 1.114 
305 735 -2.650042 3.038881 1.361 
315 735 -2.312597 2.669492 1.784 
325 735 -2.206079 2.289677 2.002 
335 735 -1.719959 3.670089 2.533 
345 735 -1.559089 3.953303 1.541 
355 735 -1.451054 4.110036 1.282 
365 735 -1.390391 4.333761 1.511 
375 735 -1.922816 4.225324 2.356 
385 735 -2.167833 3.964137 1.514 
395 735 -1.994788 4.029568 1.275 
405 735 -1.796865 4.040239 1.196 
415 735 -1.716314 3.863767 1.059 
425 735 -1.811132 3.915553 1.345 
435 735 -2.044830 4.165091 1.711 
445 735 -2.412991 4.182133 2.493 
455 735 -2.354260 3.901912 3.088 
465 735 -2.084705 3.329844 2.293 
475 735 -1.948727 2.658660 2.857 
485 735 -1.997368 2.862265 1.905 
495 735 -1.363039 3.040307 4.032 
505 735 -1.686237 3.048104 7.861 
515 735 -2.243519 3.047648 5.263 
525 735 -2.907958 3.183993 1.152 
535 735 -3.022514 3.995268 1.940 
545 735 -3.369157 3.989312 1.099 
555 735 -2.988854 4.195964 1.153 
565 735 -2.732528 3.745322 2.225 
575 735 -2.938888 3.549134 3.196 
585 735 -3.174152 3.231551 2.835 
595 735 -3.012813 2.612747 1.995 
605 735 -3.203281 2.301533 4.981 
615 735 -3.079659 2.041010 2.291 
625 735 -3.046826 1.884480 1.960 
635 735 -3.266521 1.924779 2.477 
645 735 -3.203217 1.720818 2.977 
655 735 -3.242454 1.577658 1.544 
665 735 -3.550290 1.449869 1.856 
675 735 -3.683267 1.295218 11.130 
685 735 -3.664711 1.550795 17.118 
695 735 -4.219220 1.632104 13.841 
705 735 -4.179085 1.553519 3.058 
715 735 -4.239433 1.161857 2.817 
725 735 -3.916359 0.937644 1.543 
735 735 -3.727349 1.343171 1.104 
745 735 -3.907875 1.660531 1.088 
755 735 -4.295211 2.329218 3.168 
765 735 -4.300873 3.079292 2.946 
775 735 -4.582988 3.282826 1.268 
785 735 -4.890718 2.948177 2.398 
795 735 -5.091977 1.546760 2.766 
805 735 -5.600735 0.669465 2.246 
815 735 -5.826417 0.242510 2.304 
825 735 -5.946176 0.388665 2.490 
835 735 -6.437148 0.399277 2.471 
845 735 -6.951912 0.168312 2.042 
855 735 -6.805712 -0.194883 1.067 
865 735 -6.940995 0.122680 1.572 
875 735 -7.180111 0.156922 2.353 
885 735 -7.216511 0.143927 3.387 
895 735 -6.604921 0.013898 2.895 
905 735 -6.381784 0.225854 2.599 
915 735 -6.352082 0.470930 1.956 
925 735 -6.433895 0.019107 3.037 
935 735 -6.681738 0.039391 3.266 
945 735 -6.696587 0.090111 3.693 
955 735 -6.061995 0.038257 3.675 
965 735 -6.217998 0.017501 4.882 
975 735 -6.592698 0.134790 3.095 
985 735 -6.911270 0.113266 2.666 
995 735 -6.888246 0.007923 2.129 
1005 735 -6.489927 0.163313 1.774 
1015 735 -6.374625 0.326836 3.499 
1025 735 -6.686119 0.346342 14.638 