TITLE = "B00122"
VARIABLES = "x", "y", "u", "v", "sn"
ZONE T="Frame 0", I=128, J=80
5 795 0.000000 -0.000000 1.002 
15 795 0.000000 -0.000000 1.002 
25 795 0.000000 -0.000000 1.566 
35 795 0.000000 -0.000000 1.026 
45 795 8.730319 -7.946915 1.208 
55 795 5.087551 1.836298 1.075 
65 795 1.444782 11.619512 1.102 
75 795 -2.197986 21.402725 1.278 
85 795 5.309332 20.747949 1.054 
95 795 3.313953 17.545715 1.131 
105 795 3.763142 17.326778 1.259 
115 795 4.587748 10.028121 1.109 
125 795 4.973856 8.280730 1.110 
135 795 5.359964 6.533338 1.021 
145 795 5.746071 4.785947 1.087 
155 795 3.390896 4.440535 1.899 
165 795 1.035720 4.095123 1.144 
175 795 -1.319455 3.749712 2.281 
185 795 -3.904058 6.165130 3.490 
195 795 -4.764048 5.499379 2.057 
205 795 -4.563066 2.616387 2.203 
215 795 -4.523552 0.593941 2.578 
225 795 -4.531664 0.473745 2.743 
235 795 -4.322885 0.356323 3.824 
245 795 -4.384831 0.810007 3.049 
255 795 -4.571905 1.167849 9.306 
265 795 -4.340518 1.132818 7.380 
275 795 -3.506494 0.553767 2.436 
285 795 -2.844490 0.221456 1.104 
295 795 -2.870891 0.206052 1.480 
305 795 -3.049497 0.446689 1.091 
315 795 -3.360521 0.486009 2.950 
325 795 -3.972362 0.113741 1.973 
335 795 -4.196882 0.181536 9.402 
345 795 -4.302390 0.195928 3.378 
355 795 -4.407898 0.210321 2.168 
365 795 -4.767695 -0.138464 3.459 
375 795 -5.564291 -0.505961 1.117 
385 795 -6.597694 -0.431407 5.399 
395 795 -7.517737 -0.049502 1.268 
405 795 -7.599381 0.300330 1.352 
415 795 -6.473177 0.411105 1.966 
425 795 -5.780914 0.335750 1.326 
435 795 -5.536178 0.192102 1.463 
445 795 -5.152321 -0.301104 1.292 
455 795 -4.682013 -0.922791 2.046 
465 795 -4.682578 -1.080864 2.102 
475 795 -4.683143 -1.238937 3.060 
485 795 -4.859321 -1.520689 1.721 
495 795 -5.083690 -1.696233 26.501 
505 795 -5.004956 -1.126010 2.543 
515 795 -5.264025 -0.062176 1.388 
525 795 -5.481098 0.137115 1.081 
535 795 -5.636924 0.165756 1.614 
545 795 -5.588793 0.584118 2.496 
555 795 -5.729670 1.168793 1.522 
565 795 -6.876223 1.809493 2.257 
575 795 -8.174988 2.246912 1.856 
585 795 -9.473753 2.684330 1.207 
595 795 -10.772518 3.121749 3.122 
605 795 -12.071283 3.559167 2.232 
615 795 -5.553232 0.694435 3.897 
625 795 -4.450996 1.316022 2.124 
635 795 -4.247930 1.285390 1.333 
645 795 -5.108110 0.408050 7.369 
655 795 -5.397782 0.681398 2.810 
665 795 -5.248886 2.072374 11.753 
675 795 -5.318699 3.206255 4.921 
685 795 -5.406619 2.778951 7.798 
695 795 -5.571775 2.045337 2.213 
705 795 -6.377553 1.626240 5.959 
715 795 -6.775361 1.478639 47.232 
725 795 -6.632877 1.515061 20.000 
735 795 -6.378969 1.627562 1.174 
745 795 -6.125060 1.740063 1.538 
755 795 -6.356294 1.105135 1.788 
765 795 -6.647329 1.137246 1.512 
775 795 -6.488335 1.188138 2.868 
785 795 -6.329342 1.239030 3.000 
795 795 -5.588379 0.597758 12.766 
805 795 -5.113843 0.352959 10.368 
815 795 -5.207468 0.770944 8.501 
825 795 -5.001886 1.568185 3.594 
835 795 -5.400143 -0.334668 1.051 
845 795 -9.975822 -11.185331 2.479 
855 795 -9.685903 -10.079876 3.977 
865 795 -9.395984 -8.974420 1.489 
875 795 -5.593947 1.164315 1.958 
885 795 -5.079753 1.721143 2.912 
895 795 -4.842669 2.670440 3.002 
905 795 -4.954022 2.567899 1.053 
915 795 -4.998577 1.925484 1.519 
925 795 -4.057504 1.856657 2.355 
935 795 -3.116431 1.787831 2.529 
945 795 -3.620433 1.480279 2.830 
955 795 -4.124325 0.874539 2.304 
965 795 -2.819507 1.710284 2.922 
975 795 -1.514690 2.546029 18.289 
985 795 -1.905381 2.551023 2.034 
995 795 -2.296071 2.556018 1.972 
1005 795 -2.686762 2.561012 1.295 
1015 795 -3.077452 2.566007 1.034 
1025 795 -3.468143 2.571001 1.104 
1035 795 -3.858834 2.575995 1.327 
1045 795 -2.616759 1.737826 1.112 
1055 795 -1.374684 0.899656 2.815 
1065 795 -14.151081 0.811144 1.665 
1075 795 -10.710346 0.949724 1.152 
1085 795 -7.269611 1.088305 1.213 
1095 795 -3.828875 1.226885 1.109 
1105 795 -3.634879 0.398599 2.814 
1115 795 -3.440884 -0.429687 2.280 
1125 795 -2.493938 -0.637402 1.206 
1135 795 -1.546992 -0.845117 1.323 
1145 795 -0.600046 -1.052832 1.013 
1155 795 0.346899 -1.260547 1.249 
1165 795 -2.129441 -8.343697 1.477 
1175 795 -2.931748 -12.976689 1.020 
1185 795 -3.809486 -17.911984 1.429 
1195 795 -4.902442 -21.920138 1.950 
1205 795 -3.403635 -23.883793 1.241 
1215 795 -3.470585 -20.241879 1.252 
1225 795 -3.537536 -16.599966 1.096 
1235 795 -3.604487 -12.958053 1.026 
1245 795 -3.671437 -9.316139 1.052 
1255 795 -3.738388 -5.674226 1.035 
1265 795 0.000000 -0.000000 1.213 
1275 795 0.000000 -0.000000 1.078 
5 785 9.755661 -4.770420 1.002 
15 785 10.880804 -3.170404 1.002 
25 785 13.476273 -2.529436 1.566 
35 785 16.742951 -3.331899 1.026 
45 785 16.931363 -7.950149 1.208 
55 785 -0.566260 -11.031707 1.075 
65 785 -1.542952 14.457945 1.102 
75 785 1.785674 16.113478 1.278 
85 785 5.360399 21.726299 1.054 
95 785 3.257760 18.987872 1.131 
105 785 3.773857 17.449144 1.259 
115 785 4.260924 10.068525 1.109 
125 785 6.720649 2.138544 1.110 
135 785 4.197116 4.353191 1.021 
145 785 5.755276 3.949303 1.087 
155 785 1.969944 4.681953 1.899 
165 785 0.322852 2.976453 1.144 
175 785 -1.546553 4.258844 2.281 
185 785 -4.071447 6.924520 3.490 
195 785 -5.002695 6.187915 2.057 
205 785 -4.880105 3.221272 2.203 
215 785 -4.564532 0.897763 2.578 
225 785 -4.574140 0.627283 2.743 
235 785 -4.331543 0.386910 3.824 
245 785 -4.313012 0.689495 3.049 
255 785 -4.429867 0.970928 9.306 
265 785 -4.231910 1.020408 7.380 
275 785 -3.484556 0.514127 2.436 
285 785 -2.815344 0.198385 1.104 
295 785 -2.897373 0.237344 1.480 
305 785 -3.105212 0.474715 1.091 
315 785 -3.399933 0.505302 2.950 
325 785 -3.963189 0.143748 1.973 
335 785 -4.257474 0.176814 9.402 
345 785 -4.365123 0.369734 3.378 
355 785 -4.545314 0.161812 2.168 
365 785 -4.931038 -0.181612 3.459 
375 785 -5.765058 -0.459770 1.117 
385 785 -6.677968 -0.324625 5.399 
395 785 -7.527043 0.111128 1.268 
405 785 -7.639410 0.414376 1.352 
415 785 -6.665782 0.501593 1.966 
425 785 -6.017046 0.418390 1.326 
435 785 -5.784167 0.338820 1.463 
445 785 -5.380315 -0.112445 1.292 
455 785 -4.968185 -0.596735 2.046 
465 785 -4.678392 -0.877504 2.102 
475 785 -4.699498 -0.998504 3.060 
485 785 -4.880839 -1.314014 1.721 
495 785 -5.190510 -1.361418 26.501 
505 785 -5.078410 -0.837009 2.543 
515 785 -5.363688 0.146821 1.388 
525 785 -5.566721 0.348491 1.081 
535 785 -5.700062 0.408053 1.614 
545 785 -5.679875 0.758382 2.496 
555 785 -5.852532 1.213320 1.522 
565 785 -6.466465 1.730098 2.257 
575 785 -6.514290 1.614765 1.856 
585 785 -6.423940 1.897002 1.207 
595 785 -7.923566 2.477204 3.122 
605 785 -8.764260 2.475654 2.232 
615 785 -5.234056 0.669543 3.897 
625 785 -4.227740 1.013826 2.124 
635 785 -4.463859 1.092322 1.333 
645 785 -5.208420 0.368837 7.369 
655 785 -5.508566 0.630206 2.810 
665 785 -5.339796 1.945367 11.753 
675 785 -5.371502 2.987028 4.921 
685 785 -5.402226 2.606408 7.798 
695 785 -5.576257 1.841814 2.213 
705 785 -6.325539 1.471392 5.959 
715 785 -6.643919 1.404035 47.232 
725 785 -6.482082 1.479021 20.000 
735 785 -6.061042 1.986329 1.174 
745 785 -6.021755 1.689129 1.538 
755 785 -6.208581 1.143642 1.788 
765 785 -6.469754 1.111432 1.512 
775 785 -6.308635 1.677533 2.868 
785 785 -6.171380 1.251443 3.000 
795 785 -5.496462 0.878310 12.766 
805 785 -5.152018 0.604746 10.368 
815 785 -5.331226 0.994597 8.501 
825 785 -5.321451 2.241213 3.594 
835 785 -4.985509 1.186663 1.051 
845 785 -7.795395 -5.365891 2.479 
855 785 -9.278509 -9.545732 3.977 
865 785 -7.233477 -3.997377 1.489 
875 785 -5.336878 1.779464 1.958 
885 785 -4.857940 2.387215 2.912 
895 785 -4.780398 2.929378 3.002 
905 785 -4.950476 2.796401 1.053 
915 785 -5.042815 2.282104 1.519 
925 785 -4.750276 1.525835 2.355 
935 785 -3.637506 1.923144 2.529 
945 785 -4.024548 1.677114 2.830 
955 785 -4.418877 1.099300 2.304 
965 785 -4.127154 1.102938 2.922 
975 785 -3.090825 1.701142 18.289 
985 785 -0.858301 3.397743 2.034 
995 785 -2.117754 3.655057 1.972 
1005 785 -3.377206 3.912372 1.295 
1015 785 -5.921029 3.094028 1.034 
1025 785 -5.331233 2.625014 1.104 
1035 785 -4.741437 2.156000 1.327 
1045 785 -3.911925 1.592468 1.112 
1055 785 -3.904068 0.893535 2.815 
1065 785 -10.227539 0.597080 1.665 
1075 785 -11.962413 0.818447 1.152 
1085 785 -9.448115 0.957486 1.213 
1095 785 -6.933818 1.096525 1.109 
1105 785 -4.080059 0.895836 2.814 
1115 785 -3.243128 -0.057836 2.280 
1125 785 -2.562024 -2.023638 1.206 
1135 785 -4.853423 -4.123124 1.323 
1145 785 -2.012744 -2.853901 1.013 
1155 785 0.827936 -1.584679 1.249 
1165 785 -1.420813 -6.802059 1.477 
1175 785 -3.913951 -13.855823 1.020 
1185 785 -5.437614 -18.496914 1.429 
1195 785 -6.759291 -21.773700 1.950 
1205 785 -5.270826 -23.869292 1.241 
1215 785 -3.052862 -22.534876 1.252 
1225 785 -3.148988 -21.506878 1.096 
1235 785 -3.696702 -16.696955 1.026 
1245 785 -4.448092 -11.425094 1.052 
1255 785 -3.629131 -7.808295 1.035 
1265 785 -4.548440 -4.450527 1.213 
1275 785 0.000000 -0.000000 1.078 
5 775 18.336450 -8.379562 1.118 
15 775 19.074635 -6.568996 1.118 
25 775 22.054546 -5.876846 1.536 
35 775 25.414300 -5.726722 1.499 
45 775 23.374721 -7.564544 1.063 
55 775 9.510675 -6.518566 1.134 
65 775 2.791993 5.913420 1.077 
75 775 5.769335 10.824231 1.282 
85 775 6.095115 14.741497 1.366 
95 775 4.016927 12.538832 1.551 
105 775 4.999203 6.011949 1.010 
115 775 5.923314 -1.093712 1.379 
125 775 3.109760 -3.135928 1.221 
135 775 0.688802 -1.519062 1.150 
145 775 -1.578496 0.274894 1.287 
155 775 -3.024051 1.642382 5.090 
165 775 -2.057685 2.003908 6.538 
175 775 -2.967480 3.339223 1.657 
185 775 -4.262020 5.144964 1.264 
195 775 -5.556561 6.950705 1.630 
205 775 -4.784102 2.854480 1.887 
215 775 -4.224515 0.903688 2.011 
225 775 -4.270377 0.568020 1.784 
235 775 -3.918581 0.353787 1.838 
245 775 -3.826712 0.228415 2.043 
255 775 -4.058363 0.577320 4.905 
265 775 -3.622161 0.485490 4.346 
275 775 -3.146875 0.692071 4.586 
285 775 -2.737161 0.262531 5.074 
295 775 -3.034905 0.189008 8.248 
305 775 -3.297936 0.445535 1.803 
315 775 -3.775482 0.486755 1.304 
325 775 -3.785034 0.294708 4.609 
335 775 -4.207650 0.007587 3.556 
345 775 -4.489137 0.152887 1.984 
355 775 -4.759430 -0.074234 2.800 
365 775 -5.277916 -0.541768 2.933 
375 775 -6.005515 -0.501629 1.132 
385 775 -6.855366 -0.165807 1.554 
395 775 -7.825019 0.554151 1.399 
405 775 -7.856027 0.555793 1.202 
415 775 -7.062693 0.516867 2.400 
425 775 -6.569540 0.716454 2.314 
435 775 -6.404782 0.567662 1.535 
445 775 -5.969566 0.235071 1.439 
455 775 -5.116983 -0.107856 1.258 
465 775 -4.481863 -0.509486 1.388 
475 775 -4.309554 -0.730181 3.072 
485 775 -4.536530 -0.955809 2.323 
495 775 -5.094913 -0.741155 2.752 
505 775 -5.063756 -0.385976 4.571 
515 775 -5.312083 0.338874 8.810 
525 775 -5.601187 0.673480 2.059 
535 775 -5.818282 0.838412 1.869 
545 775 -5.654679 0.839079 3.507 
555 775 -5.796454 1.231387 2.437 
565 775 -6.218815 1.564884 1.561 
575 775 -5.878912 1.611917 1.135 
585 775 -5.531591 1.587213 1.157 
595 775 -5.275474 1.975444 1.392 
605 775 -5.457238 1.392140 5.460 
615 775 -4.845653 0.524395 2.568 
625 775 -4.440481 0.664220 2.859 
635 775 -4.893978 0.783480 2.643 
645 775 -5.389428 0.305297 2.484 
655 775 -5.675961 0.864716 3.882 
665 775 -5.639501 1.995805 7.343 
675 775 -5.479161 2.814105 13.940 
685 775 -5.487761 2.453017 9.037 
695 775 -5.767468 1.830233 1.812 
705 775 -6.170219 1.347492 2.382 
715 775 -6.359851 1.379866 2.452 
725 775 -6.230856 1.459546 3.894 
735 775 -6.040909 1.672641 2.765 
745 775 -6.133875 1.548968 2.579 
755 775 -6.299275 1.232656 2.435 
765 775 -5.886648 0.953125 2.207 
775 775 -5.844783 1.377716 2.485 
785 775 -5.848419 1.246052 4.703 
795 775 -5.404544 1.158862 3.174 
805 775 -5.470341 1.220787 2.632 
815 775 -5.978219 1.591426 3.717 
825 775 -5.641016 2.914240 1.926 
835 775 -5.800442 2.339929 1.613 
845 775 -5.614969 0.453548 2.506 
855 775 -5.670218 -1.047863 1.934 
865 775 -5.070971 0.979667 4.687 
875 775 -4.774477 2.532466 2.702 
885 775 -4.859810 2.441960 6.805 
895 775 -4.879268 2.813201 6.331 
905 775 -4.854065 3.298614 2.726 
915 775 -4.795969 2.874303 1.835 
925 775 -4.659773 2.303343 2.010 
935 775 -4.158581 2.058458 1.007 
945 775 -5.222913 1.686857 2.839 
955 775 -5.311147 1.415120 8.881 
965 775 -5.206605 1.044185 4.401 
975 775 -4.541839 1.131471 7.954 
985 775 -3.818409 1.257727 1.569 
995 775 -3.643518 1.592987 1.525 
1005 775 -4.380069 1.871723 1.617 
1015 775 -4.418089 1.960291 1.535 
1025 775 -4.500677 1.905599 1.028 
1035 775 -4.581916 1.861778 1.231 
1045 775 -4.812013 1.656824 1.742 
1055 775 -5.150962 0.999912 1.058 
1065 775 -6.303996 0.383015 1.156 
1075 775 -9.032061 0.913578 1.442 
1085 775 -7.569886 0.569235 1.378 
1095 775 -6.586140 0.545083 1.764 
1105 775 -5.003693 0.031746 5.891 
1115 775 -3.999751 -0.980080 2.826 
1125 775 -1.664115 -1.397117 1.160 
1135 775 0.835105 -1.357406 1.633 
1145 775 2.232332 -1.024561 1.492 
1155 775 -1.728468 -1.751729 1.047 
1165 775 -2.504292 -4.442580 1.255 
1175 775 -5.047773 -11.201434 1.098 
1185 775 -8.460113 -16.544950 1.095 
1195 775 -9.986547 -19.917712 1.350 
1205 775 -9.445218 -20.009035 1.073 
1215 775 -6.083878 -20.049180 1.973 
1225 775 -5.033118 -17.108659 1.118 
1235 775 -5.032973 -14.816763 1.109 
1245 775 -4.406022 -11.739437 1.169 
1255 775 -1.712848 -8.786817 1.267 
1265 775 -1.569228 -6.946074 1.165 
1275 775 -1.253810 -3.149826 1.053 
5 765 19.298544 -11.020287 1.152 
15 765 23.164217 -10.153466 1.152 
25 765 22.280143 -6.916851 1.067 
35 765 22.531041 -6.693757 1.040 
45 765 26.981309 -7.221169 1.084 
55 765 17.844626 -2.520977 1.180 
65 765 11.355184 4.055124 1.442 
75 765 8.631142 9.283922 1.291 
85 765 8.050152 11.331784 1.664 
95 765 4.713961 8.052562 1.135 
105 765 5.236086 3.711046 1.211 
115 765 5.015170 0.946116 1.840 
125 765 4.794254 -1.818814 1.907 
135 765 1.614795 -1.017545 1.540 
145 765 -2.265547 0.119196 1.392 
155 765 -4.997149 1.574116 4.739 
165 765 -3.924233 1.602784 2.295 
175 765 -5.351270 2.051804 1.935 
185 765 -5.737639 4.279506 1.046 
195 765 -6.124009 6.507208 1.115 
205 765 -4.196467 2.241611 1.866 
215 765 -3.290197 0.616177 1.952 
225 765 -2.973776 0.407039 1.638 
235 765 -2.133042 0.502158 1.285 
245 765 -1.708519 0.450269 1.073 
255 765 -2.289803 0.373440 1.127 
265 765 -2.847002 0.368381 1.785 
275 765 -2.828468 0.478047 2.280 
285 765 -2.723931 0.325484 1.018 
295 765 -3.001052 0.178075 1.398 
305 765 -3.451582 0.459817 1.233 
315 765 -3.413676 0.485526 2.998 
325 765 -3.566745 0.369859 5.477 
335 765 -4.231038 0.077988 5.055 
345 765 -4.717893 0.074441 3.799 
355 765 -5.033659 -0.369349 3.505 
365 765 -5.533059 -0.661764 10.166 
375 765 -6.136889 -0.645452 1.425 
385 765 -6.550806 -0.025883 1.306 
395 765 -7.867107 0.584683 1.011 
405 765 -7.444941 0.593676 1.008 
415 765 -6.749658 0.547092 2.886 
425 765 -6.604401 0.755405 2.930 
435 765 -6.353433 0.847688 3.020 
445 765 -6.018070 0.665871 2.722 
455 765 -5.426787 0.418886 2.418 
465 765 -4.645072 0.173233 1.087 
475 765 -3.935445 -0.853419 4.455 
485 765 -4.115353 -1.321771 4.979 
495 765 -4.798228 -1.014946 2.432 
505 765 -5.180583 -0.295158 1.770 
515 765 -5.461275 0.259869 3.851 
525 765 -5.742434 0.537736 2.312 
535 765 -5.764093 0.873111 1.227 
545 765 -5.861990 0.773206 2.195 
555 765 -6.067370 0.931144 6.144 
565 765 -6.396686 1.303267 1.824 
575 765 -5.723803 1.208511 1.678 
585 765 -5.234936 1.218889 1.492 
595 765 -4.937460 1.326021 1.834 
605 765 -5.053966 0.944007 2.351 
615 765 -5.017448 0.337672 3.356 
625 765 -5.366133 0.438628 2.302 
635 765 -5.535884 0.513467 3.012 
645 765 -5.848409 0.465410 2.302 
655 765 -6.092913 0.884684 2.680 
665 765 -6.067599 1.657852 2.008 
675 765 -5.612862 2.494707 5.111 
685 765 -5.533555 2.067988 3.836 
695 765 -5.685717 1.652567 1.343 
705 765 -5.893225 1.333528 1.746 
715 765 -6.040271 1.285187 2.238 
725 765 -5.919148 1.402353 3.996 
735 765 -5.776824 1.497821 2.709 
745 765 -5.873261 1.338677 2.642 
755 765 -5.903913 1.154831 1.971 
765 765 -5.329967 1.102644 2.316 
775 765 -5.163531 0.916573 1.650 
785 765 -5.406854 1.207472 1.483 
795 765 -5.100129 1.465341 3.324 
805 765 -5.189091 1.736289 3.521 
815 765 -5.804198 1.916523 2.799 
825 765 -5.516832 2.668944 3.066 
835 765 -5.346214 2.743717 2.014 
845 765 -4.833931 2.434355 3.072 
855 765 -4.614995 1.797670 3.013 
865 765 -4.428447 2.239929 1.855 
875 765 -4.798124 2.320811 1.068 
885 765 -4.965125 2.667094 1.181 
895 765 -4.804965 3.303682 1.409 
905 765 -4.941249 3.674360 2.354 
915 765 -5.015636 3.534565 6.731 
925 765 -4.922515 3.283668 1.576 
935 765 -4.933157 2.496827 1.366 
945 765 -5.671945 1.839931 3.510 
955 765 -5.653898 1.466173 3.876 
965 765 -5.594216 1.292621 1.534 
975 765 -5.110597 1.160313 3.767 
985 765 -4.786627 1.082667 2.357 
995 765 -4.652712 1.291706 1.634 
1005 765 -4.435666 1.392233 1.809 
1015 765 -4.465692 1.980650 1.163 
1025 765 -4.456593 1.974917 1.155 
1035 765 -4.656419 1.894906 1.068 
1045 765 -4.837404 1.625465 1.585 
1055 765 -5.278672 1.070117 2.753 
1065 765 -5.901340 0.690343 2.174 
1075 765 -6.101709 1.008709 2.959 
1085 765 -5.813912 0.818857 1.685 
1095 765 -5.427928 0.359351 1.350 
1105 765 -5.086586 -0.049634 1.944 
1115 765 -4.534734 -0.775647 1.529 
1125 765 -3.904346 -1.224615 2.357 
1135 765 -0.845185 -0.967081 1.007 
1145 765 -2.361147 -2.038640 1.168 
1155 765 -4.484901 -1.264925 1.387 
1165 765 -4.948640 -3.291182 1.074 
1175 765 -5.123612 -7.620399 1.003 
1185 765 -8.632528 -13.034872 1.086 
1195 765 -10.924731 -16.219936 1.077 
1205 765 -10.857916 -17.102654 1.372 
1215 765 -10.517713 -16.792705 2.338 
1225 765 -8.276014 -14.961026 1.068 
1235 765 -5.838367 -13.615732 1.015 
1245 765 -2.611888 -11.218775 1.236 
1255 765 0.235620 -9.229108 1.281 
1265 765 0.692999 -7.089230 1.453 
1275 765 -1.465211 -4.188079 1.415 
5 755 20.260639 -13.661012 1.032 
15 755 17.914836 -11.598394 1.032 
25 755 17.329926 -9.300799 1.058 
35 755 19.647783 -7.660791 1.235 
45 755 22.165607 -5.791190 1.083 
55 755 15.767801 -1.498118 1.006 
65 755 11.253871 5.050078 1.065 
75 755 10.069535 10.231315 1.049 
85 755 7.539882 10.023475 1.131 
95 755 3.710308 5.296617 1.164 
105 755 4.811155 1.809612 1.372 
115 755 4.643776 -0.067162 1.102 
125 755 4.476398 -1.943935 1.321 
135 755 1.462531 -0.295978 1.182 
145 755 -3.977487 1.140417 1.010 
155 755 -4.884134 1.171038 2.048 
165 755 -5.790780 1.201659 3.708 
175 755 -5.643006 1.636410 1.783 
185 755 -5.522187 3.282313 1.042 
195 755 -5.275416 4.085523 1.007 
205 755 -2.862595 1.470083 1.125 
215 755 -2.133159 0.609285 1.351 
225 755 -2.126617 0.640995 1.272 
235 755 -0.951576 0.678386 1.289 
245 755 -1.321603 0.559449 1.191 
255 755 -2.142003 0.297458 1.104 
265 755 -2.071842 0.251273 1.547 
275 755 -2.510061 0.264023 1.013 
285 755 -2.737083 0.258139 1.052 
295 755 -2.936171 0.210545 1.055 
305 755 -3.289482 0.386912 1.704 
315 755 -3.186204 0.550826 1.096 
325 755 -3.549187 0.234299 1.127 
335 755 -4.376175 -0.123113 1.999 
345 755 -4.910981 -0.061473 2.808 
355 755 -5.303798 -0.356465 4.233 
365 755 -5.742682 -0.611758 3.339 
375 755 -6.028689 -0.341308 2.503 
385 755 -6.171159 0.085025 3.115 
395 755 -5.897821 0.515042 1.521 
405 755 -6.169107 0.473957 1.284 
415 755 -6.243060 0.429649 1.310 
425 755 -6.165626 0.837425 2.630 
435 755 -6.262700 0.892040 4.068 
445 755 -6.105444 0.792841 10.453 
455 755 -5.661675 0.714833 3.122 
465 755 -4.961726 0.798813 1.958 
475 755 -4.206857 -0.705417 54.530 
485 755 -4.119897 -1.290310 36.448 
495 755 -4.391631 -1.116776 3.412 
505 755 -5.111632 -0.577615 3.189 
515 755 -5.487462 0.080162 5.461 
525 755 -5.808000 0.446454 2.361 
535 755 -6.024938 0.582374 1.549 
545 755 -6.188455 0.589548 2.408 
555 755 -6.509259 0.534983 5.672 
565 755 -6.783245 0.792977 3.950 
575 755 -6.603537 0.802247 2.584 
585 755 -6.035046 0.700268 2.829 
595 755 -5.811421 0.600872 1.224 
605 755 -5.866228 0.290695 1.257 
615 755 -5.921035 -0.019482 1.081 
625 755 -6.301797 0.205408 1.378 
635 755 -6.240936 0.437835 1.901 
645 755 -6.303693 0.645248 2.288 
655 755 -6.363214 1.038491 3.849 
665 755 -6.158649 1.773151 4.735 
675 755 -5.960416 2.190214 2.821 
685 755 -5.836009 1.913344 1.774 
695 755 -5.781360 1.466466 1.951 
705 755 -5.764259 1.404678 1.494 
715 755 -5.776170 1.342191 2.966 
725 755 -5.447800 1.323958 2.126 
735 755 -5.403097 1.549676 1.858 
745 755 -5.315329 1.309369 2.097 
755 755 -5.038467 1.167107 1.774 
765 755 -4.774833 1.298469 3.080 
775 755 -4.806550 1.117268 2.515 
785 755 -5.047376 1.214898 3.072 
795 755 -4.795714 1.771821 5.357 
805 755 -4.989214 2.066991 5.063 
815 755 -5.314771 2.150860 2.033 
825 755 -5.291265 2.757217 1.991 
835 755 -4.891986 3.147505 1.651 
845 755 -5.039153 2.814896 2.989 
855 755 -5.031042 2.330395 2.638 
865 755 -4.830784 2.023212 1.278 
875 755 -4.821771 2.109156 1.843 
885 755 -4.715854 2.856026 2.130 
895 755 -4.712500 3.420106 1.442 
905 755 -5.061114 3.558180 4.488 
915 755 -5.200739 3.335222 4.859 
925 755 -4.971515 2.772023 1.704 
935 755 -5.508831 2.467492 1.743 
945 755 -5.463244 1.875178 2.792 
955 755 -4.740917 1.551735 1.520 
965 755 -4.895374 1.697970 1.156 
975 755 -4.865027 1.755814 2.284 
985 755 -4.385948 1.485864 2.466 
995 755 -4.545702 1.416366 3.304 
1005 755 -4.054840 1.569502 1.232 
1015 755 -4.192067 1.905880 1.088 
1025 755 -4.417833 1.776166 3.321 
1035 755 -4.727060 1.535025 3.664 
1045 755 -4.845758 1.391376 2.628 
1055 755 -5.336323 1.098123 4.354 
1065 755 -5.674272 0.951608 1.724 
1075 755 -5.585394 1.296302 7.267 
1085 755 -5.539479 1.136818 20.000 
1095 755 -5.603858 0.714350 1.903 
1105 755 -4.940024 0.044380 2.106 
1115 755 -4.298101 -0.513551 4.573 
1125 755 -4.490419 -0.592647 2.910 
1135 755 -4.131918 0.943000 1.112 
1145 755 -5.012001 -0.361014 1.073 
1155 755 -5.140217 -0.482546 1.030 
1165 755 -5.268434 -0.604078 1.011 
1175 755 -4.236597 -6.445104 1.182 
1185 755 -6.463077 -11.545128 1.175 
1195 755 -9.881801 -13.714714 1.303 
1205 755 -12.270614 -14.196274 1.489 
1215 755 -11.463178 -13.545975 1.097 
1225 755 -11.529572 -15.691450 2.032 
1235 755 -10.395817 -13.913760 1.425 
1245 755 -5.336159 -10.218427 1.054 
1255 755 0.329768 -7.916963 1.118 
1265 755 0.612003 -7.400443 1.766 
1275 755 -1.676613 -5.226331 1.547 
5 745 14.515081 -14.407085 1.116 
15 745 10.889321 -13.003077 1.116 
25 745 11.417618 -10.689329 1.568 
35 745 13.724359 -8.871415 1.790 
45 745 15.527465 -5.580782 1.540 
55 745 11.968277 -0.063368 1.118 
65 745 12.916471 6.180304 1.012 
75 745 10.723709 8.353806 1.204 
85 745 5.626606 8.672433 1.056 
95 745 1.398949 5.886660 1.129 
105 745 2.800927 2.364057 1.379 
115 745 4.079748 -1.619817 1.243 
125 745 3.077601 -2.774978 2.092 
135 745 1.052182 -0.081578 1.186 
145 745 -3.405198 1.963007 1.731 
155 745 -4.783391 1.697684 2.684 
165 745 -6.161585 1.432362 2.117 
175 745 -4.792581 1.126395 2.409 
185 745 -4.799546 1.703320 3.589 
195 745 -4.426824 1.663837 1.447 
205 745 -1.999457 1.107465 1.287 
215 745 -2.339441 0.361104 1.380 
225 745 -3.163918 0.580310 1.570 
235 745 -2.023279 0.637364 1.149 
245 745 -0.934687 0.668629 1.519 
255 745 -1.994202 0.221476 1.797 
265 745 -2.467512 0.137423 2.935 
275 745 -2.620978 0.162644 1.548 
285 745 -2.943623 0.164522 1.598 
295 745 -3.142006 0.473261 4.067 
305 745 -3.503011 0.810332 3.941 
315 745 -3.344089 0.659146 1.612 
325 745 -3.699798 -0.020016 1.289 
335 745 -4.896688 -0.357303 3.794 
345 745 -5.470561 -0.461656 6.283 
355 745 -5.636105 -0.355833 2.634 
365 745 -6.241782 -0.654112 1.660 
375 745 -6.300995 -0.331074 1.585 
385 745 -5.854746 0.093502 3.301 
395 745 -5.669596 0.410411 1.581 
405 745 -5.921102 0.549316 1.232 
415 745 -6.199023 0.319666 1.168 
425 745 -6.095001 0.554822 2.635 
435 745 -6.222932 0.609094 1.677 
445 745 -6.187777 0.477049 2.522 
455 745 -5.984300 0.651717 3.241 
465 745 -5.538604 0.616516 1.637 
475 745 -4.891479 -0.396799 1.731 
485 745 -4.501779 -1.031954 2.064 
495 745 -4.750924 -1.157663 2.564 
505 745 -5.192634 -0.904676 2.844 
515 745 -5.353475 -0.178541 1.703 
525 745 -5.566264 0.264252 1.629 
535 745 -6.067344 0.341366 1.354 
545 745 -6.611455 0.196909 2.707 
555 745 -6.936912 -0.034313 4.823 
565 745 -6.860395 -0.182157 3.397 
575 745 -6.690540 -0.200294 2.645 
585 745 -6.389898 -0.155475 12.493 
595 745 -6.225752 0.192008 1.651 
605 745 -5.526456 1.349745 1.833 
615 745 -4.827160 2.507483 1.266 
625 745 -6.797834 -0.149735 1.402 
635 745 -6.565046 0.157679 2.770 
645 745 -6.512430 0.711885 2.272 
655 745 -6.432466 1.253671 7.269 
665 745 -6.390627 1.803829 3.504 
675 745 -6.360998 1.886537 1.938 
685 745 -6.332382 1.988040 1.016 
695 745 -6.274645 1.882538 1.642 
705 745 -5.635293 1.475829 1.778 
715 745 -5.512069 1.399195 1.918 
725 745 -5.599204 1.352546 2.124 
735 745 -5.093109 1.891800 1.495 
745 745 -4.853325 1.376786 1.175 
755 745 -4.634568 1.113149 2.112 
765 745 -4.829254 1.601178 2.244 
775 745 -4.731722 1.581146 2.170 
785 745 -4.722116 1.450022 3.075 
795 745 -4.592956 1.916410 2.555 
805 745 -4.875404 2.187233 3.628 
815 745 -5.090733 2.168183 2.379 
825 745 -5.022555 3.161606 1.886 
835 745 -5.084985 3.370568 1.743 
845 745 -5.227315 3.153381 2.639 
855 745 -5.272344 2.766868 1.838 
865 745 -5.472614 2.561310 5.890 
875 745 -5.118535 2.680380 3.190 
885 745 -4.929045 2.933678 3.404 
895 745 -4.799255 3.138721 2.247 
905 745 -5.351070 2.924916 1.738 
915 745 -5.327572 2.309398 2.341 
925 745 -4.972619 1.965473 2.070 
935 745 -5.412314 1.919539 3.207 
945 745 -5.311354 1.476357 16.549 
955 745 -4.823101 1.304496 2.176 
965 745 -4.866031 1.198362 1.258 
975 745 -4.979819 1.335337 2.067 
985 745 -4.743974 1.691313 3.658 
995 745 -4.438691 1.541026 2.367 
1005 745 -4.661839 1.634683 1.675 
1015 745 -4.928488 1.866682 1.401 
1025 745 -5.245147 1.824311 1.959 
1035 745 -5.060256 1.447340 3.108 
1045 745 -4.866120 1.028964 2.318 
1055 745 -5.464687 0.981150 2.328 
1065 745 -5.522826 0.770956 2.851 
1075 745 -5.246131 0.925068 8823.210 
1085 745 -5.365621 0.902025 285.168 
1095 745 -5.464717 0.578548 2.554 
1105 745 -4.989403 0.228321 2.841 
1115 745 -4.172581 -0.042598 2.242 
1125 745 -3.987359 0.299958 1.795 
1135 745 -5.755526 1.857521 1.348 
1145 745 -7.523692 3.415084 1.166 
1155 745 -5.862655 2.079727 1.090 
1165 745 -4.201619 0.744370 1.112 
1175 745 -4.963497 -5.244024 1.033 
1185 745 -5.725375 -11.232419 1.297 
1195 745 -9.150665 -13.117460 1.326 
1205 745 -10.734741 -12.448302 1.311 
1215 745 -10.926655 -7.474108 1.550 
1225 745 -11.629348 -5.099155 1.102 
1235 745 -9.958447 -3.483426 1.293 
1245 745 -7.115962 -3.745028 1.089 
1255 745 -3.370907 -6.089264 1.119 
1265 745 -1.894893 -7.883453 2.111 
1275 745 -1.888014 -6.264583 1.934 
5 735 8.769524 -15.153158 1.269 
15 735 6.267875 -13.557311 1.269 
25 735 6.639504 -10.659486 1.770 
35 735 9.513773 -8.155891 1.501 
45 735 11.916964 -5.079461 1.710 
55 735 9.681069 -0.281445 1.593 
65 735 7.466892 7.133596 1.381 
75 735 5.560243 8.467533 1.035 
85 735 2.633672 7.347329 1.129 
95 735 -0.780542 5.301329 1.124 
105 735 0.645760 0.883306 1.009 
115 735 1.581571 -2.784995 1.066 
125 735 1.678804 -3.606021 1.021 
135 735 1.443191 -1.995351 1.074 
145 735 -2.518202 1.459750 3.143 
155 735 -6.613984 1.940843 1.315 
165 735 -6.443738 1.369679 1.001 
175 735 -4.894197 0.777101 3.193 
185 735 -4.754615 0.862127 12.896 
195 735 -4.165081 0.619006 2.958 
205 735 -2.402565 0.487483 1.220 
215 735 -2.545722 0.112923 1.023 
225 735 -3.801167 0.029132 3.137 
235 735 -3.370554 0.285557 20.000 
245 735 -2.947408 0.501852 1.815 
255 735 -2.843285 0.302447 1.944 
265 735 -2.695900 0.202952 1.725 
275 735 -2.731895 0.061266 1.391 
285 735 -2.801079 0.334618 1.000 
295 735 -3.166775 0.648724 2.240 
305 735 -3.575417 1.060876 2.168 
315 735 -4.024920 1.131996 1.313 
325 735 -4.563424 0.194744 1.548 
335 735 -5.325594 -0.592291 1.371 
345 735 -5.502540 -0.549554 1.521 
355 735 -5.673188 -0.580247 3.008 
365 735 -6.312660 -0.877485 2.184 
375 735 -6.446703 -0.619396 3.015 
385 735 -5.887821 -0.255598 3.152 
395 735 -5.668499 0.032398 1.693 
405 735 -5.787204 0.232166 2.370 
415 735 -5.973905 -0.132324 1.201 
425 735 -5.985604 0.111146 2.704 
435 735 -6.283001 -0.111776 2.814 
445 735 -6.407188 -0.194093 3.584 
455 735 -6.304274 0.327195 2.795 
465 735 -6.258504 0.261793 3.247 
475 735 -5.928647 -0.248042 3.824 
485 735 -5.264567 -1.171634 1.654 
495 735 -5.350254 -1.299325 1.783 
505 735 -5.582670 -1.277850 6.379 
515 735 -5.647368 -0.580993 1.148 
525 735 -5.675298 -0.305685 2.222 
535 735 -6.154164 -0.210859 3.430 
545 735 -6.926642 -0.247477 1.874 
555 735 -7.046824 -0.514778 2.964 
565 735 -6.949110 -0.615788 1.737 
575 735 -6.772770 -0.629714 1.743 
585 735 -6.544358 -0.553923 2.113 
595 735 -6.396099 0.095465 1.110 
605 735 -5.833905 0.968861 1.417 
615 735 -5.658525 1.157087 1.299 
625 735 -6.743001 -0.332011 1.768 
635 735 -6.668480 0.082546 2.076 
645 735 -6.587882 0.975552 1.659 
655 735 -6.680851 1.373721 2.813 
665 735 -6.605269 1.706555 1.962 
675 735 -6.600251 1.902774 2.982 
685 735 -6.588733 2.001310 1.434 
695 735 -6.510444 2.335681 1.767 
705 735 -5.862644 2.196497 2.078 
715 735 -5.384659 1.976462 2.073 
725 735 -5.534974 1.990928 1.742 
735 735 -5.156447 2.177264 1.156 
745 735 -5.029647 1.840409 1.177 
755 735 -4.968268 1.425065 1.738 
765 735 -4.902710 1.712457 1.239 
775 735 -4.809693 1.645590 2.698 
785 735 -4.693638 1.465661 2.740 
795 735 -4.710815 1.772354 2.209 
805 735 -4.856222 2.079962 1.574 
815 735 -5.042413 2.279658 1.183 
825 735 -5.133623 2.598704 2.337 
835 735 -5.335216 3.280577 3.783 
845 735 -5.338489 3.204216 2.946 
855 735 -5.440751 2.996553 1.810 
865 735 -5.184235 2.845856 8.019 
875 735 -5.233741 2.938922 5.628 
885 735 -5.179524 3.181152 2.619 
895 735 -4.854065 3.175365 2.509 
905 735 -5.367821 2.469650 2.013 
915 735 -5.328467 1.868086 1.466 
925 735 -5.305541 1.737493 3.591 
935 735 -5.282615 1.606900 1.841 
945 735 -5.280316 1.393496 1.647 
955 735 -5.059350 1.116013 7.115 
965 735 -4.941971 1.051979 1.101 
975 735 -4.905592 0.815591 2.080 
985 735 -4.994883 1.577914 3.599 
995 735 -4.806137 1.606781 2.616 