TITLE = "B00120"
VARIABLES = "x", "y", "u", "v", "sn"
ZONE T="Frame 0", I=128, J=80
5 795 3.186210 -0.465820 2.112 
15 795 4.066237 -1.179995 2.112 
25 795 -1.189560 -0.420570 1.841 
35 795 -6.445356 0.338854 1.051 
45 795 -3.881814 -0.589587 1.781 
55 795 -1.318272 -1.518029 2.284 
65 795 0.047926 -2.964124 1.792 
75 795 0.355174 -6.732710 1.559 
85 795 -0.254477 -5.680777 1.935 
95 795 -0.864129 -4.628843 1.085 
105 795 -1.473780 -3.576910 1.327 
115 795 -2.083431 -2.524977 1.128 
125 795 -2.693082 -1.473044 1.663 
135 795 -5.884523 -3.316100 1.085 
145 795 -6.853575 -2.467974 1.219 
155 795 -7.822626 -1.619848 1.398 
165 795 -6.607734 -1.030089 1.664 
175 795 -6.794693 0.250053 1.365 
185 795 -6.862899 1.246928 1.127 
195 795 -6.931105 2.243804 1.308 
205 795 -5.625415 1.655039 2.209 
215 795 -5.426468 1.311377 2.233 
225 795 -5.227521 0.967714 2.170 
235 795 -5.385495 2.225188 1.406 
245 795 -4.820779 1.874063 1.293 
255 795 -4.735368 0.934376 1.452 
265 795 -4.885732 0.597269 7.849 
275 795 -4.657389 0.568009 9.017 
285 795 -4.432931 0.681223 3.941 
295 795 -4.301407 0.926873 1.695 
305 795 -4.003111 1.400687 1.954 
315 795 -3.373496 1.477265 2.373 
325 795 -2.598078 0.954243 20.000 
335 795 -2.585671 0.609487 5.344 
345 795 -2.549095 0.716998 2.041 
355 795 -5.994225 1.446002 1.059 
365 795 -7.957061 0.909641 1.003 
375 795 13.824160 -8.718504 1.166 
385 795 11.212237 -8.964965 1.269 
395 795 5.682910 -5.655690 1.022 
405 795 -0.426866 -1.863575 1.392 
415 795 -2.526969 0.751908 3.057 
425 795 -3.476337 2.309263 1.066 
435 795 -3.421676 2.459508 2.295 
445 795 -3.862113 2.550025 2.067 
455 795 -4.956893 3.665549 1.010 
465 795 -4.273106 3.577660 1.005 
475 795 -3.589320 3.489771 1.787 
485 795 -4.000193 3.175116 1.947 
495 795 -3.762834 3.028609 1.983 
505 795 -3.525475 2.882102 2.965 
515 795 -3.003909 2.770279 6.345 
525 795 -2.816989 2.780070 4.279 
535 795 -3.325901 2.709496 1.361 
545 795 -3.056818 2.838262 2.269 
555 795 -2.913269 2.690538 1.827 
565 795 -2.909910 2.588383 3.206 
575 795 -3.333414 2.865413 7.553 
585 795 -3.406739 2.753983 7.314 
595 795 -3.003466 2.614784 1.030 
605 795 -3.236457 2.634495 1.178 
615 795 -3.609155 2.483754 3.418 
625 795 -3.554713 1.787167 4.281 
635 795 -3.519534 1.512868 13.154 
645 795 -3.693955 1.661811 19.444 
655 795 -4.114793 2.051859 1.600 
665 795 -4.370406 2.108075 2.085 
675 795 -4.526550 1.942620 2.850 
685 795 -4.559357 1.745500 4.261 
695 795 -4.992760 1.835320 2.221 
705 795 -4.983630 2.120710 2.017 
715 795 -4.638052 2.201692 2.187 
725 795 -4.322882 1.554835 1.863 
735 795 -4.397378 1.543687 1.358 
745 795 -4.357026 1.806761 1.396 
755 795 -4.509808 1.925884 2.471 
765 795 -5.055206 1.687444 4.393 
775 795 -5.431380 1.154073 2.891 
785 795 -5.630025 0.454340 4.102 
795 795 -5.633361 0.568431 2.782 
805 795 -5.700924 0.751224 2.465 
815 795 -5.252250 0.921603 1.586 
825 795 -5.002609 1.889916 1.542 
835 795 -5.125351 2.001957 2.166 
845 795 -5.248092 2.113998 3.277 
855 795 -5.998052 1.738016 2.172 
865 795 -6.204060 1.225693 2.003 
875 795 -5.926540 0.230912 1.173 
885 795 -6.073719 -0.350361 1.942 
895 795 -6.118408 -0.528187 1.580 
905 795 -5.367461 0.613656 2.091 
915 795 -5.018880 2.030708 1.814 
925 795 -5.778539 2.948829 1.161 
935 795 -6.655966 3.453883 3.441 
945 795 -6.551944 3.299185 1.977 
955 795 -6.332934 2.314450 1.174 
965 795 -6.113924 1.329715 1.024 
975 795 -5.894915 0.344981 1.786 
985 795 -5.103000 0.199630 1.042 
995 795 -4.311086 0.054279 3.101 
1005 795 -4.026658 0.455786 5.808 
1015 795 -3.332168 0.330641 3.803 
1025 795 -2.239247 -0.649095 1.820 
1035 795 -0.955442 -0.168681 1.701 
1045 795 -1.615194 0.975599 1.556 
1055 795 -2.684087 1.492901 1.383 
1065 795 -3.705427 1.660173 7.247 
1075 795 -3.992158 2.168764 9.739 
1085 795 -4.165699 2.597256 3.176 
1095 795 -4.533767 2.830696 6.233 
1105 795 -4.972727 3.502702 1.590 
1115 795 -4.563930 4.155910 1.156 
1125 795 -4.155134 4.809119 1.025 
1135 795 -2.349479 3.505028 1.170 
1145 795 -1.038592 2.108371 1.130 
1155 795 -0.530691 1.700355 1.523 
1165 795 -1.135268 0.843395 1.695 
1175 795 -1.620186 4.238053 1.194 
1185 795 -2.105104 7.632711 1.057 
1195 795 -2.590022 11.027369 1.113 
1205 795 -1.978331 17.368271 1.006 
1215 795 -2.426180 14.076729 1.055 
1225 795 -2.874028 10.785187 1.026 
1235 795 -4.104424 6.843228 1.479 
1245 795 -5.334820 2.901268 1.812 
1255 795 -6.339140 2.823042 1.466 
1265 795 -7.343460 2.744816 1.398 
1275 795 0.000000 -0.000000 1.267 
5 785 1.808377 3.055146 2.112 
15 785 3.631856 0.498336 2.112 
25 785 2.852863 -0.614016 1.841 
35 785 -2.147443 2.264252 1.051 
45 785 -1.589253 1.282364 1.781 
55 785 -0.428266 -0.457270 2.284 
65 785 0.614661 -1.994481 1.792 
75 785 0.812583 -6.244523 1.559 
85 785 0.641122 -5.989597 1.935 
95 785 0.469661 -5.734671 1.085 
105 785 0.571792 -4.222517 1.327 
115 785 0.673923 -2.710364 1.128 
125 785 -0.106669 -9.113277 1.663 
135 785 -3.908206 -6.477369 1.085 
145 785 -7.434055 -2.477826 1.219 
155 785 -7.279857 -0.560700 1.398 
165 785 -6.882762 1.062212 1.664 
175 785 -6.572773 2.092117 1.365 
185 785 -6.648912 2.643552 1.127 
195 785 -6.725051 3.194987 1.308 
205 785 -5.497543 2.431513 2.209 
215 785 -5.353969 0.899858 2.233 
225 785 -5.252266 1.275356 2.170 
235 785 -5.122293 1.988784 1.406 
245 785 -4.893542 1.862647 1.293 
255 785 -4.833576 0.975137 1.452 
265 785 -4.926512 0.693458 7.849 
275 785 -4.658823 0.615316 9.017 
285 785 -4.450032 0.684601 3.941 
295 785 -4.301881 0.894359 1.695 
305 785 -3.975162 1.345195 1.954 
315 785 -3.335136 1.516503 2.373 
325 785 -2.584602 1.124022 20.000 
335 785 -2.643186 0.774644 5.344 
345 785 -2.634121 0.799643 2.041 
355 785 -4.673060 1.289268 1.059 
365 785 -9.400693 1.769376 1.003 
375 785 11.080640 -7.215772 1.166 
385 785 8.099061 -7.206055 1.269 
395 785 3.242035 -4.191211 1.022 
405 785 -1.228644 -1.328725 1.392 
415 785 -2.931260 1.181640 3.057 
425 785 -3.455461 2.324483 1.066 
435 785 -3.477925 2.402995 2.295 
445 785 -3.894893 2.427436 2.067 
455 785 -4.858310 3.503944 1.010 
465 785 -4.218183 3.453693 1.005 
475 785 -3.578056 3.403442 1.787 
485 785 -3.761288 3.116305 1.947 
495 785 -3.673908 2.940954 1.983 
505 785 -3.586528 2.765604 2.965 
515 785 -3.096130 2.688893 6.345 
525 785 -2.807503 2.647845 4.279 
535 785 -3.057765 2.641443 1.361 
545 785 -2.954331 2.811186 2.269 
555 785 -2.852279 2.657499 1.827 
565 785 -2.841544 2.510193 3.206 
575 785 -3.213499 2.754592 7.553 
585 785 -3.288277 2.673891 7.314 
595 785 -2.920089 2.516110 1.030 
605 785 -3.153225 2.532041 1.178 
615 785 -3.467622 2.417959 3.418 
625 785 -3.440803 1.820688 4.281 
635 785 -3.405199 1.610417 13.154 
645 785 -3.553750 1.747633 19.444 
655 785 -3.934511 2.123401 1.600 
665 785 -4.176856 2.181963 2.085 
675 785 -4.325201 2.018905 2.850 
685 785 -4.336366 1.792080 4.261 
695 785 -4.754714 1.853197 2.221 
705 785 -4.763211 2.115194 2.017 
715 785 -4.459570 2.162335 2.187 
725 785 -4.074905 1.578336 1.863 
735 785 -4.150066 1.612042 1.358 
745 785 -4.163107 1.812355 1.396 
755 785 -4.408746 1.856401 2.471 
765 785 -4.971925 1.627928 4.393 
775 785 -5.375577 1.149069 2.891 
785 785 -5.539298 0.564325 4.102 
795 785 -5.572260 0.739568 2.782 
805 785 -5.662540 0.919479 2.465 
815 785 -5.287796 0.957242 1.586 
825 785 -5.138466 1.762291 1.542 
835 785 -5.097690 2.207467 2.166 
845 785 -5.408754 1.851852 3.277 
855 785 -6.143463 1.487169 2.172 
865 785 -6.348644 1.128072 2.003 
875 785 -6.019236 0.388364 1.173 
885 785 -6.138134 -0.198384 1.942 
895 785 -6.200588 -0.532333 1.580 
905 785 -5.636573 0.437710 2.091 
915 785 -5.341753 1.872968 1.814 
925 785 -6.031081 2.667676 1.161 
935 785 -6.785845 3.116627 3.441 
945 785 -6.634438 2.924500 1.977 
955 785 -6.088209 1.729579 1.174 
965 785 -5.863078 0.945191 1.024 
975 785 -5.637947 0.160803 1.786 
985 785 -4.328518 -0.530475 1.042 
995 785 -4.139761 -0.035529 3.101 
1005 785 -3.793785 0.384535 5.808 
1015 785 -3.142677 0.151351 3.803 
1025 785 -2.269377 -0.809452 1.820 
1035 785 -1.560417 -0.504447 1.701 
1045 785 -1.729987 0.704156 1.556 
1055 785 -2.794830 1.367154 1.383 
1065 785 -3.684836 1.858294 7.247 
1075 785 -4.115413 2.230447 9.739 
1085 785 -4.274857 2.650903 3.176 
1095 785 -4.708658 2.857082 6.233 
1105 785 -5.083967 3.398156 1.590 
1115 785 -4.315851 3.542186 1.156 
1125 785 -3.547734 3.686215 1.025 
1135 785 -1.767352 3.086437 1.170 
1145 785 -0.579977 2.285636 1.130 
1155 785 -0.263766 1.347149 1.523 
1165 785 -0.603695 0.706089 1.695 
1175 785 -1.219017 1.108965 1.194 
1185 785 -1.475617 3.425110 1.057 
1195 785 -1.229418 13.191018 1.113 
1205 785 -0.241043 14.655852 1.006 
1215 785 -2.895344 15.326863 1.055 
1225 785 -2.796379 9.681205 1.026 
1235 785 -3.034937 4.422136 1.479 
1245 785 -4.471595 3.358160 1.812 
1255 785 -7.698781 3.406297 1.466 
1265 785 -8.505788 3.501460 1.398 
1275 785 -4.685251 2.050042 1.267 
5 775 0.430544 6.576112 1.465 
15 775 2.670481 4.879134 1.465 
25 775 2.435145 4.984990 1.375 
35 775 2.150469 4.189650 1.383 
45 775 1.429096 2.404731 1.072 
55 775 0.717714 0.517774 1.186 
65 775 1.030345 -2.059449 1.904 
75 775 1.127025 -6.105579 1.390 
85 775 0.866224 -7.234927 1.057 
95 775 0.605424 -8.364275 1.149 
105 775 0.463740 -5.875355 1.031 
115 775 0.851798 -6.347666 1.305 
125 775 -0.942634 -8.593394 1.211 
135 775 -2.839153 -6.390028 1.094 
145 775 -7.095088 -6.323845 1.144 
155 775 -7.304151 -0.228744 1.668 
165 775 -6.578308 0.684242 2.123 
175 775 -6.954078 2.203077 1.639 
185 775 -6.898831 2.845369 1.216 
195 775 -6.239349 2.976637 1.520 
205 775 -5.321327 2.628054 1.579 
215 775 -4.644368 0.478305 2.570 
225 775 -4.892134 0.430904 3.061 
235 775 -4.835543 1.517641 1.638 
245 775 -5.203658 1.472496 1.224 
255 775 -5.369708 0.787190 2.006 
265 775 -5.053746 0.496090 2.659 
275 775 -4.593896 0.402324 2.031 
285 775 -4.303921 0.480718 1.190 
295 775 -4.299842 0.827823 2.874 
305 775 -3.901721 1.015590 1.153 
315 775 -3.329163 1.216003 3.875 
325 775 -2.777407 1.372170 3.031 
335 775 -2.807313 1.153057 2.965 
345 775 -2.925690 1.010404 1.906 
355 775 -3.351895 1.132534 15.074 
365 775 -2.093197 0.037693 1.135 
375 775 2.499674 -3.368109 3.874 
385 775 2.892456 -4.540971 1.826 
395 775 -1.434567 -2.266794 1.578 
405 775 -2.547140 -0.520750 1.170 
415 775 -3.313939 1.571994 2.157 
425 775 -3.317182 2.462767 1.568 
435 775 -3.729988 2.054742 1.949 
445 775 -3.870605 1.789481 1.048 
455 775 -3.858602 2.541240 1.451 
465 775 -3.645498 2.676523 1.272 
475 775 -3.432394 2.811806 1.638 
485 775 -3.443610 2.930192 1.466 
495 775 -3.669838 2.821498 2.518 
505 775 -3.518041 2.567526 1.014 
515 775 -3.035233 2.553803 3.062 
525 775 -2.685585 2.619599 27.041 
535 775 -2.789630 2.573390 2.196 
545 775 -2.668849 2.907921 1.689 
555 775 -2.468351 2.645005 1.815 
565 775 -2.646901 2.672791 1.659 
575 775 -2.961737 2.629448 2.308 
585 775 -3.059388 2.510975 3.333 
595 775 -2.722925 2.236517 1.433 
605 775 -3.032601 2.269579 1.229 
615 775 -3.391932 2.181335 2.241 
625 775 -3.397811 1.886430 2.518 
635 775 -3.339635 1.673164 4.082 
645 775 -3.528738 1.791352 8.417 
655 775 -3.759401 2.009660 2.601 
665 775 -3.984949 2.255551 2.632 
675 775 -3.965720 2.027106 5.147 
685 775 -4.081306 1.745904 2.635 
695 775 -4.433704 1.708288 2.412 
705 775 -4.450899 1.908934 2.191 
715 775 -4.162986 1.951480 4.745 
725 775 -3.620958 1.760239 1.678 
735 775 -3.058149 2.017675 1.326 
745 775 -3.541238 2.024910 1.162 
755 775 -4.294300 1.873579 1.070 
765 775 -4.979317 1.616968 1.411 
775 775 -5.532639 1.326370 2.284 
785 775 -5.684022 0.997489 3.226 
795 775 -5.602273 1.420936 3.125 
805 775 -5.643150 1.498791 2.534 
815 775 -5.346322 1.182122 3.020 
825 775 -5.370263 1.452829 3.173 
835 775 -5.571994 1.867130 1.765 
845 775 -5.979478 1.531605 4.247 
855 775 -6.475365 1.401926 1.591 
865 775 -6.520485 1.382426 1.766 
875 775 -6.336154 1.208073 2.849 
885 775 -6.447267 0.931173 2.521 
895 775 -6.459656 0.383647 3.086 
905 775 -6.017583 0.343263 3.535 
915 775 -5.817183 1.305425 2.998 
925 775 -6.858805 1.942136 3.976 
935 775 -6.923510 2.441829 22.683 
945 775 -6.629398 2.365559 13.787 
955 775 -6.248362 1.560905 2.129 
965 775 -5.624475 0.159973 1.643 
975 775 -5.340291 -0.131421 2.245 
985 775 -4.470255 -0.317757 1.873 
995 775 -3.865569 -0.141149 3.275 
1005 775 -3.646269 0.236310 1.487 
1015 775 -2.982623 0.052698 1.529 
1025 775 -2.726935 -0.442405 2.296 
1035 775 -2.165392 -0.840212 3.144 
1045 775 -2.742120 0.078520 3.123 
1055 775 -3.290939 1.314893 2.937 
1065 775 -4.021952 2.034223 2.666 
1075 775 -4.331602 2.503155 6.681 
1085 775 -4.823566 3.246442 2.343 
1095 775 -5.382292 3.140062 1.570 
1105 775 -5.249741 3.582314 1.300 
1115 775 -4.398897 3.635898 1.808 
1125 775 -3.548054 3.689482 4.720 
1135 775 -1.273049 1.322221 1.409 
1145 775 0.362394 0.298276 1.715 
1155 775 0.153495 -0.061248 1.151 
1165 775 -0.152258 0.942345 1.094 
1175 775 -0.524340 0.741888 1.696 
1185 775 -0.387938 3.180920 2.430 
1195 775 0.745232 8.602610 2.702 
1205 775 1.496244 11.943432 1.495 
1215 775 -2.430480 12.595678 1.388 
1225 775 -3.387835 7.765573 1.338 
1235 775 -0.911146 4.914495 1.257 
1245 775 -3.166194 3.477897 1.873 
1255 775 -6.485204 3.127791 1.032 
1265 775 -8.814709 3.516861 1.011 
1275 775 -3.887953 1.903089 1.024 
5 765 -1.597052 8.766110 1.180 
15 765 0.872054 4.573290 1.180 
25 765 1.319281 5.345924 1.170 
35 765 1.574184 3.738936 1.548 
45 765 1.011980 0.794772 1.099 
55 765 0.224379 -0.242810 1.286 
65 765 0.280775 -1.499096 1.308 
75 765 0.660398 -4.730470 1.083 
85 765 1.952188 -8.785363 1.428 
95 765 0.410205 -11.937708 1.507 
105 765 -0.670934 -10.786713 1.042 
115 765 -0.559693 -6.937155 1.436 
125 765 -1.778599 -8.073511 1.110 
135 765 -1.770099 -6.302687 1.371 
145 765 -9.230480 -5.556478 1.812 
155 765 -7.752167 -2.625103 1.638 
165 765 -6.273855 0.306272 1.393 
175 765 -4.912172 2.019656 1.217 
185 765 -5.485849 2.523331 1.052 
195 765 -4.981820 2.049390 1.237 
205 765 -4.048852 1.332940 1.287 
215 765 -4.504160 0.456043 2.316 
225 765 -4.822144 0.352248 1.899 
235 765 -4.929549 1.268445 1.678 
245 765 -5.303433 0.879671 1.552 
255 765 -5.018895 0.439251 2.254 
265 765 -4.699687 0.156041 3.448 
275 765 -4.444233 -0.048637 1.921 
285 765 -4.243216 -0.139161 3.607 
295 765 -4.142880 0.048322 1.987 
305 765 -4.040328 0.365584 3.822 
315 765 -3.356540 1.063177 1.939 
325 765 -3.007536 1.746246 1.761 
335 765 -3.001923 1.528164 3.502 
345 765 -3.092158 1.202407 4.685 
355 765 -3.235182 1.029097 2.152 
365 765 -2.917655 0.530191 1.810 
375 765 -2.338548 -1.066589 1.211 
385 765 -2.090546 -1.973183 1.431 
395 765 -2.534479 -1.137103 2.242 
405 765 -2.678532 0.905030 2.181 
415 765 -2.429403 2.163299 3.919 
425 765 -2.853024 2.426106 3.515 
435 765 -3.736617 1.471062 1.031 
445 765 -3.796277 1.718698 1.770 
455 765 -3.766121 1.700617 1.768 
465 765 -3.556112 2.483458 1.641 
475 765 -3.385252 2.547987 1.103 
485 765 -3.440462 2.510241 4.072 
495 765 -3.511198 2.417626 3.695 
505 765 -3.543860 2.191513 1.115 
515 765 -3.101181 2.213495 1.393 
525 765 -2.600397 2.262675 3.478 
535 765 -2.412667 2.395734 2.483 
545 765 -2.383367 3.004656 1.559 
555 765 -2.424077 2.618964 1.176 
565 765 -2.617322 2.466891 2.368 
575 765 -2.669541 2.493093 2.604 
585 765 -2.643143 2.088661 1.556 
595 765 -2.828230 1.985748 1.323 
605 765 -3.012409 1.881427 1.172 
615 765 -3.309651 1.825357 2.186 
625 765 -3.263968 1.804901 2.475 
635 765 -3.306474 1.670263 1.813 
645 765 -3.304492 1.735540 1.496 
655 765 -3.374283 1.957537 1.288 
665 765 -3.570110 2.132885 3.171 
675 765 -3.611257 2.086879 13.229 
685 765 -3.761512 1.823275 10.470 
695 765 -4.140282 1.754967 3.333 
705 765 -4.369906 1.983109 2.038 
715 765 -3.868982 1.813088 2.665 
725 765 -3.284149 1.641240 2.229 
735 765 -3.129332 4.458622 1.196 
745 765 -3.797385 3.493565 1.258 
755 765 -4.650402 1.556215 1.121 
765 765 -5.414393 1.492368 1.615 
775 765 -5.819087 1.388374 2.006 
785 765 -5.722701 1.412053 6.267 
795 765 -5.687526 1.873330 5.840 
805 765 -5.722573 2.066113 2.524 
815 765 -5.450263 1.351946 1.157 
825 765 -5.702495 1.289717 1.938 
835 765 -6.014508 1.527223 3.832 
845 765 -6.361890 1.390781 2.471 
855 765 -6.861741 1.557001 1.628 
865 765 -6.621398 1.782224 2.039 
875 765 -6.518406 1.912123 2.093 
885 765 -6.223238 1.331973 2.782 
895 765 -6.300776 -0.120661 3.233 
905 765 -6.164732 -0.464176 5.138 
915 765 -6.088892 0.427374 2.394 
925 765 -6.500999 1.097911 1.557 
935 765 -6.871776 1.439632 1.391 
945 765 -6.572375 1.600390 15.960 
955 765 -6.017995 1.032120 1.758 
965 765 -5.215297 0.316068 1.231 
975 765 -4.859985 -0.044922 5.798 
985 765 -4.611992 -0.105038 4.105 
995 765 -4.189817 0.092458 2.364 
1005 765 -3.573566 0.370108 2.672 
1015 765 -3.371797 0.450846 1.380 
1025 765 -3.184494 -0.075358 3.113 
1035 765 -3.310698 -0.616613 2.641 
1045 765 -3.436022 -0.343231 3.777 
1055 765 -4.255009 1.421866 1.666 
1065 765 -4.826892 2.163761 1.882 
1075 765 -4.985729 2.659629 1.586 
1085 765 -5.251735 3.365490 2.646 
1095 765 -5.445155 3.535738 2.528 
1105 765 -5.270552 3.734662 1.586 
1115 765 -4.797976 3.506417 1.060 
1125 765 -3.294522 2.699818 1.439 
1135 765 -1.220841 0.210028 1.042 
1145 765 -0.886825 -0.708235 1.356 
1155 765 -0.553321 -2.238246 1.044 
1165 765 -0.721764 -2.174408 1.337 
1175 765 -0.055772 -2.462887 1.046 
1185 765 1.034639 0.277109 1.680 
1195 765 2.791921 5.970385 1.770 
1205 765 3.240948 10.774729 1.323 
1215 765 -1.965615 9.864493 1.706 
1225 765 -3.003370 7.174330 1.303 
1235 765 1.212645 5.406855 1.006 
1245 765 -1.129270 2.653751 1.569 
1255 765 -5.629997 3.350711 1.452 
1265 765 -4.360326 2.553423 1.135 
1275 765 -3.090655 1.756135 1.278 
5 755 -1.715348 5.483725 1.018 
15 755 -0.926372 4.267446 1.018 
25 755 -1.170210 2.693749 1.119 
35 755 -1.216596 0.702917 1.012 
45 755 0.594865 -0.815188 1.146 
55 755 -0.268956 -1.003395 1.815 
65 755 -1.487530 -3.541573 1.133 
75 755 0.165609 -6.033606 1.071 
85 755 1.962874 -9.413654 1.165 
95 755 2.556018 -13.540273 1.312 
105 755 -1.912088 -13.640543 1.189 
115 755 -1.737116 -5.201488 1.527 
125 755 -2.466511 -3.175778 1.256 
135 755 -2.934197 -2.819539 1.077 
145 755 -8.838728 -3.859151 2.589 
155 755 -7.632329 -1.985608 2.962 
165 755 -6.425931 -0.112066 1.195 
175 755 -4.754870 1.387951 1.522 
185 755 -4.228800 2.025157 1.652 
195 755 -4.254435 1.334323 2.384 
205 755 -4.261796 0.576801 1.897 
215 755 -4.553978 0.488179 2.873 
225 755 -4.530206 0.608357 1.726 
235 755 -4.664892 0.689035 1.193 
245 755 -4.811734 0.378920 1.008 
255 755 -4.483973 0.043836 1.616 
265 755 -4.135572 -0.205768 3.331 
275 755 -4.050463 -0.507737 1.452 
285 755 -4.237049 -0.608242 2.805 
295 755 -4.561104 -0.566796 1.974 
305 755 -4.288768 -0.149425 1.165 
315 755 -3.378315 0.880193 1.102 
325 755 -3.028517 1.965581 1.887 
335 755 -2.962432 2.068844 1.867 
345 755 -3.107679 1.523437 2.615 
355 755 -3.145802 1.399168 1.285 
365 755 -3.186087 0.785868 2.124 
375 755 -3.259744 -0.920607 1.299 
385 755 -3.040174 -1.504030 1.597 
395 755 -3.245365 -0.053125 2.372 
405 755 -2.677820 1.230805 2.794 
415 755 -2.722856 1.736226 9.595 
425 755 -2.767893 2.241647 3.049 
435 755 -3.728324 1.836120 1.165 
445 755 -3.721948 1.647914 1.600 
455 755 -3.641968 1.482245 1.382 
465 755 -3.523851 1.905696 1.753 
475 755 -3.528099 2.399612 1.237 
485 755 -3.437313 2.090290 2.069 
495 755 -3.741336 1.658076 2.404 
505 755 -3.775105 1.572930 2.068 
515 755 -3.375476 1.845602 1.356 
525 755 -3.031143 1.812731 1.594 
535 755 -2.757137 1.643294 1.477 
545 755 -2.566146 2.133843 1.998 
555 755 -2.466352 2.224230 1.250 
565 755 -2.796739 2.125809 2.056 
575 755 -2.831409 2.040851 3.277 
585 755 -2.889475 1.724488 1.393 
595 755 -3.130926 1.477550 1.097 
605 755 -3.340296 1.434646 1.717 
615 755 -3.008944 1.467242 4.726 
625 755 -2.922913 1.664870 5.090 
635 755 -2.971827 1.792347 2.333 
645 755 -3.104065 1.903155 2.443 
655 755 -3.364084 2.184306 1.405 
665 755 -3.555592 2.315468 2.419 
675 755 -3.500821 2.183386 7.175 
685 755 -3.758761 1.893025 5.087 
695 755 -3.950747 1.830539 10.851 
705 755 -3.989082 1.924787 4.821 
715 755 -3.821873 1.939249 1.543 
725 755 -3.478501 1.770839 2.978 
735 755 -3.200515 6.899569 1.150 
745 755 -4.168816 4.025089 1.070 
755 755 -5.137116 1.150608 1.119 
765 755 -5.593221 0.910948 7.274 
775 755 -5.688479 0.796301 3.009 
785 755 -5.727485 1.025132 3.046 
795 755 -5.958899 1.686721 130.993 
805 755 -6.085659 1.935440 2.744 
815 755 -5.788681 1.151524 1.099 
825 755 -6.096026 0.929340 1.809 
835 755 -6.637275 0.871086 1.864 
845 755 -6.610408 0.989406 2.193 
855 755 -6.788855 1.477110 2.954 
865 755 -6.722310 2.182022 2.722 
875 755 -6.180239 1.546868 1.429 
885 755 -5.898829 1.021188 1.139 
895 755 -5.894361 -0.484329 3.890 
905 755 -5.828365 -0.820852 35.391 
915 755 -5.936031 -0.244794 2.108 
925 755 -5.887707 0.583975 2.608 
935 755 -6.023612 0.815960 1.568 
945 755 -6.091528 1.078089 4.680 
955 755 -5.693747 0.781714 1.630 
965 755 -5.067338 0.290998 1.268 
975 755 -4.929158 0.135949 3.799 
985 755 -4.608322 0.120648 3.800 
995 755 -4.514066 0.326064 3.057 
1005 755 -4.367370 0.707963 3.004 
1015 755 -4.286533 1.296677 2.121 
1025 755 -4.200788 1.075067 2.104 
1035 755 -4.456004 -0.393014 6.942 
1045 755 -4.310027 -0.094204 6.091 
1055 755 -4.793606 1.377849 4.106 
1065 755 -4.998923 2.100620 20.000 
1075 755 -5.111729 2.461889 1.820 
1085 755 -5.149908 2.985700 2.228 
1095 755 -4.832546 3.242567 2.484 
1105 755 -4.563228 3.444603 1.764 
1115 755 -4.448474 3.420508 1.010 
1125 755 -3.593558 2.594315 1.042 
1135 755 -2.582857 0.626370 1.027 
1145 755 -2.136044 -1.714746 1.529 
1155 755 -1.843744 -2.511247 1.125 
1165 755 -1.395863 -3.728613 1.052 
1175 755 -0.170386 -4.531112 1.173 
1185 755 1.348034 -1.627896 1.049 
1195 755 3.201585 3.949305 1.027 
1205 755 4.985653 9.606025 1.032 
1215 755 2.456602 13.652006 1.159 
1225 755 -0.014651 7.133886 1.060 
1235 755 1.652606 3.877819 1.104 
1245 755 -0.019465 2.164468 1.171 
1255 755 0.031423 1.319220 1.012 
1265 755 -0.601950 1.720635 1.938 
1275 755 -0.806891 2.104402 1.641 
5 745 0.039594 2.388230 1.291 
15 745 -1.170933 0.777212 1.291 
25 745 -1.231995 0.204703 1.185 
35 745 -2.245723 -1.519164 1.752 
45 745 -1.763976 -3.912240 1.770 
55 745 -2.114014 -3.920263 1.305 
65 745 -3.255834 -5.584049 1.211 
75 745 -0.999622 -7.683222 1.139 
85 745 1.429588 -9.166003 1.104 
95 745 0.128321 -10.722214 1.089 
105 745 -1.172946 -12.278425 1.018 
115 745 -1.500607 1.475262 1.027 
125 745 -2.300506 2.205887 1.349 
135 745 -3.253800 1.015112 1.026 
145 745 -5.286337 0.904676 1.208 
155 745 -6.558588 -1.153072 1.258 
165 745 -5.323453 0.071757 1.481 
175 745 -4.202185 0.946318 1.822 
185 745 -3.849402 1.295853 1.661 
195 745 -4.119816 0.878487 2.558 
205 745 -4.292948 0.379192 2.538 
215 745 -4.543405 0.467598 2.479 
225 745 -4.292776 0.217284 1.429 
235 745 -4.228249 0.077183 1.068 
245 745 -4.171916 -0.185244 1.364 
255 745 -3.729791 -0.231769 1.342 
265 745 -3.360979 -0.444226 1.049 
275 745 -3.040637 -0.578641 1.407 
285 745 -3.563792 -0.587860 1.925 
295 745 -4.484837 -0.810861 1.367 
305 745 -4.345627 -0.588410 2.377 
315 745 -3.700029 0.570276 2.966 
325 745 -3.138737 1.886360 3.035 
335 745 -3.109295 2.198321 2.529 
345 745 -2.993548 1.588670 2.449 
355 745 -3.166219 1.715108 1.578 
365 745 -3.049524 0.833388 1.512 
375 745 -3.429309 -0.345525 1.217 
385 745 -3.647764 -0.808643 1.835 
395 745 -3.466913 0.549550 4.561 
405 745 -3.046942 1.398399 1.752 
415 745 -3.121970 1.685327 3.607 
425 745 -3.196999 1.972254 1.352 
435 745 -3.735574 2.004625 2.003 
445 745 -3.577077 1.901117 2.925 
455 745 -3.337207 1.829788 2.816 
465 745 -3.652580 1.813794 2.276 
475 745 -3.495544 1.711803 1.865 
485 745 -3.062079 1.532596 1.695 
495 745 -3.394556 1.215987 1.792 
505 745 -3.818256 1.192442 2.441 
515 745 -3.724711 1.546470 1.757 
525 745 -3.834464 1.615764 2.560 
535 745 -3.175243 1.310415 1.777 
545 745 -2.861011 1.338815 2.254 
555 745 -2.672958 1.860431 2.371 
565 745 -2.930102 2.205564 2.469 
575 745 -3.157393 2.282953 2.134 
585 745 -3.205345 1.675728 1.145 
595 745 -3.420047 1.414633 1.007 
605 745 -3.533631 1.332111 2.812 
615 745 -2.968817 1.500711 2.178 
625 745 -2.917395 1.835087 1.919 
635 745 -3.025602 2.286814 2.556 
645 745 -3.110694 2.268328 1.823 
655 745 -3.480218 2.328191 1.704 
665 745 -3.734805 2.390037 1.198 
675 745 -3.793956 2.149589 1.056 
685 745 -3.713429 1.852189 10.283 
695 745 -3.695259 1.797464 1.793 
705 745 -3.660837 1.886807 5.645 
715 745 -3.649526 1.857333 1.859 
725 745 -3.534322 1.921035 2.074 
735 745 -3.786371 1.852719 1.135 
745 745 -4.339455 1.642848 1.015 
755 745 -4.892540 1.432976 1.519 
765 745 -5.397549 0.938087 7.697 
775 745 -5.542919 0.641366 3.400 
785 745 -5.569727 0.761898 2.219 
795 745 -6.302446 1.356852 2.366 
805 745 -6.594157 1.644558 1.204 
815 745 -6.478703 1.218643 1.362 
825 745 -6.861398 0.598822 2.145 
835 745 -6.905072 0.196021 3.861 
845 745 -6.361227 0.244242 2.071 
855 745 -5.756769 0.692970 1.587 
865 745 -5.751163 1.129173 2.589 
875 745 -5.655631 1.032779 1.151 
885 745 -5.456842 0.709639 1.111 
895 745 -5.582513 -0.227513 1.434 
905 745 -5.762054 -0.584290 1.876 
915 745 -6.179118 0.157430 18.927 
925 745 -5.914561 0.778122 6.256 
935 745 -5.967073 0.738665 10.111 
945 745 -5.672303 0.333308 1.997 
955 745 -5.623111 0.524575 1.802 
965 745 -5.082106 0.315580 3.085 
975 745 -4.998330 0.316820 3.057 
985 745 -4.914773 0.316333 5.806 
995 745 -4.936760 0.679921 2.752 
1005 745 -4.940639 1.057435 3.360 
1015 745 -5.213751 1.281533 1.719 
1025 745 -5.486862 1.505631 1.414 
1035 745 -5.508876 0.685701 2.593 
1045 745 -5.260534 0.417177 3.689 
1055 745 -5.033013 1.247488 3.252 
1065 745 -4.777707 1.968519 4.381 
1075 745 -4.978477 2.312420 1.835 
1085 745 -4.790646 2.514112 1.705 
1095 745 -4.326566 2.689964 1.902 
1105 745 -4.284060 2.795324 1.740 
1115 745 -4.250793 2.959573 1.106 
1125 745 -4.069387 2.554582 1.425 
1135 745 -4.035824 1.588524 18.583 
1145 745 -3.604011 0.109421 2.498 
1155 745 -3.134167 -2.784249 1.034 
1165 745 -2.069962 -5.282819 1.579 
1175 745 -0.225712 -5.715620 1.597 
1185 745 0.890403 -2.060659 1.080 
1195 745 3.409772 6.386831 1.042 
1205 745 6.242353 14.285994 1.319 
1215 745 4.092763 10.783438 1.220 
1225 745 1.943173 7.280882 1.290 
1235 745 1.207008 2.272324 1.216 
1245 745 0.144222 1.556780 1.227 
1255 745 0.893558 1.546479 1.041 
1265 745 1.253382 2.086550 1.039 
1275 745 1.476874 2.452668 1.084 
5 735 5.395264 -0.326875 1.216 
15 735 2.074789 -0.847662 1.216 
25 735 -1.293781 -2.284343 1.923 
35 735 -3.274851 -3.741246 1.035 
45 735 -3.273039 -3.779269 1.705 
55 735 -3.271227 -3.817292 1.505 
65 735 -3.174357 -5.145258 1.016 
75 735 -4.621863 -6.694395 1.768 
85 735 1.004707 -9.036386 1.004 
95 735 0.927294 -6.124742 2.230 
105 735 0.849882 -3.213097 1.386 
115 735 -1.358765 2.811206 1.204 
125 735 -1.709195 2.145079 1.286 
135 735 -2.575255 1.263765 1.097 
145 735 -3.142602 0.849242 1.316 
155 735 -4.084911 -0.330784 1.180 
165 735 -4.032440 -0.127641 1.018 
175 735 -3.735423 0.410712 1.853 
185 735 -3.576694 0.794711 2.368 
195 735 -4.042155 0.663805 1.750 
205 735 -4.507183 0.700401 1.191 
215 735 -4.475923 0.504509 1.049 
225 735 -4.213441 0.352942 1.310 
235 735 -3.954770 -0.167676 1.012 
245 735 -3.684627 -0.655143 2.005 
255 735 -3.375493 -0.551278 1.239 
265 735 -2.837612 -0.585850 2.011 
275 735 -2.654941 -0.329335 1.607 
285 735 -3.029827 -0.475225 1.091 
295 735 -3.102964 -0.715805 1.276 
305 735 -3.541332 -0.966417 1.027 
315 735 -3.843718 -0.645819 1.206 
325 735 -4.069584 0.509410 1.127 
335 735 -3.678247 1.503801 1.188 
345 735 -2.879417 1.653903 1.815 
355 735 -2.827243 1.488048 2.523 
365 735 -2.944978 0.815764 1.328 
375 735 -3.336728 0.016886 1.104 
385 735 -3.577735 0.076850 1.536 
395 735 -3.608452 0.924250 2.611 
405 735 -3.424203 1.369152 1.284 
415 735 -3.352809 1.334954 1.459 
425 735 -3.753423 1.360430 1.415 
435 735 -3.725630 1.621428 1.287 
445 735 -3.489078 1.606397 1.651 
455 735 -3.024329 1.311850 3.127 
465 735 -2.984316 1.259148 2.148 
475 735 -3.129927 1.154853 1.871 
485 735 -2.716164 1.175338 1.930 
495 735 -2.832278 0.874189 1.604 
505 735 -2.954968 0.822817 1.524 
515 735 -3.221481 2.059347 4.450 
525 735 -3.580089 2.075963 2.818 
535 735 -3.390215 1.233076 1.304 
545 735 -2.883859 1.117441 2.371 
555 735 -2.844248 1.715474 2.384 
565 735 -3.120523 2.224555 2.699 
575 735 -3.285964 2.409279 1.987 
585 735 -3.172779 2.012696 2.237 
595 735 -3.315332 1.805324 1.435 
605 735 -3.194705 1.675853 2.069 
615 735 -2.857373 1.829185 3.836 
625 735 -2.750142 2.030386 1.840 
635 735 -2.686817 2.240982 1.388 
645 735 -2.903448 2.247943 1.223 
655 735 -3.129306 2.101986 1.462 
665 735 -3.533269 2.110845 1.386 
675 735 -3.712803 1.979693 1.550 
685 735 -3.674967 1.823089 4.394 
695 735 -3.584877 1.856082 4.207 
705 735 -3.742231 2.075310 2.103 
715 735 -3.918745 2.003147 4.304 
725 735 -3.945464 1.985901 3.621 
735 735 -4.102115 1.975868 2.894 
745 735 -4.593710 1.684824 1.890 
755 735 -4.615895 1.712656 2.385 
765 735 -5.114038 1.426669 4.425 
775 735 -5.392988 0.959076 3.916 
785 735 -5.543742 0.687305 1.628 
795 735 -6.045409 1.090296 1.762 
805 735 -6.497950 1.693721 3.211 
815 735 -6.768386 1.548729 2.402 
825 735 -6.746544 0.859536 1.506 
835 735 -6.616434 0.418437 2.457 
845 735 -5.686079 0.117305 1.322 
855 735 -4.941162 0.431675 1.962 
865 735 -5.009988 0.467795 3.346 
875 735 -5.148485 0.569024 1.961 
885 735 -5.170470 0.530577 5.756 
895 735 -5.404155 0.366072 3.317 
905 735 -6.079154 0.272970 2.217 
915 735 -6.422206 0.559654 1.331 
925 735 -5.941414 0.972269 1.516 
935 735 -5.910534 0.661370 1.304 
945 735 -5.965973 0.347608 1.562 
955 735 -5.758383 0.464269 2.794 
965 735 -5.717246 0.606960 1.891 
975 735 -5.384801 0.516108 1.139 
985 735 -5.277833 0.575858 1.247 
995 735 -5.218138 0.814795 1.776 
1005 735 -5.412394 1.213435 2.285 
1015 735 -5.345837 1.501762 2.060 
1025 735 -5.507250 1.532946 1.753 
1035 735 -5.643512 0.808014 2.314 
1045 735 -5.757427 0.408684 1.642 