TITLE = "B00158"
VARIABLES = "x", "y", "u", "v", "sn"
ZONE T="Frame 0", I=128, J=80
5 795 0.000000 -0.000000 1.154 
15 795 -0.054858 -0.564254 1.154 
25 795 2.861095 -2.760670 1.764 
35 795 6.115416 -2.300826 1.558 
45 795 4.798063 -0.233127 1.088 
55 795 3.480711 1.834573 1.008 
65 795 2.163359 3.902272 1.075 
75 795 0.846007 5.969971 1.019 
85 795 -0.471345 8.037671 1.143 
95 795 -0.862251 8.713395 1.383 
105 795 -1.253157 9.389118 1.105 
115 795 5.352653 -3.735093 1.111 
125 795 11.958463 -16.859303 1.101 
135 795 9.690707 -20.634316 1.064 
145 795 5.563532 -19.811082 1.351 
155 795 1.436357 -18.987849 1.145 
165 795 -2.690817 -18.164616 1.359 
175 795 -6.826039 -16.102983 1.118 
185 795 -7.764838 -13.081824 2.648 
195 795 -7.716076 -6.142001 1.232 
205 795 -7.667314 0.797822 1.134 
215 795 -7.418704 0.670248 1.360 
225 795 -7.170093 0.542674 1.585 
235 795 -6.921483 0.415100 1.458 
245 795 -6.779045 0.464544 1.521 
255 795 -6.636607 0.513988 2.045 
265 795 -6.494169 0.563433 2.429 
275 795 -6.452804 0.539000 3.135 
285 795 -6.112386 0.670534 2.523 
295 795 -5.896617 0.868445 1.613 
305 795 -6.300706 0.969055 1.491 
315 795 -6.298929 1.158097 2.654 
325 795 -5.944213 0.778122 1.902 
335 795 -5.933629 0.487485 3.193 
345 795 -5.923045 0.196848 3.808 
355 795 -5.996913 -0.014664 4.522 
365 795 -5.969296 -0.156835 4.334 
375 795 -6.014770 -0.078070 4.534 
385 795 -5.969032 -0.001850 2.824 
395 795 -5.884747 0.179761 5.914 
405 795 -6.041708 0.021938 3.730 
415 795 -6.198670 -0.135886 1.645 
425 795 -6.355631 -0.293710 1.292 
435 795 -6.579742 -0.745388 1.362 
445 795 -6.449257 -0.502337 3.861 
455 795 -5.935273 -0.210890 3.037 
465 795 -5.361054 -0.255418 1.643 
475 795 -5.278700 -0.086406 1.834 
485 795 -5.624342 -0.149095 2.120 
495 795 -5.723694 -0.574152 1.993 
505 795 -5.435421 -0.726325 3.043 
515 795 -5.432445 -0.872164 2.489 
525 795 -5.688157 -1.161442 2.288 
535 795 -5.912884 -1.578190 3.455 
545 795 -5.713384 -1.634333 1.761 
555 795 -5.422936 -1.102090 2.177 
565 795 -5.419075 -1.226493 1.007 
575 795 -5.564424 -1.446677 2.360 
585 795 -5.842210 -1.357397 2.213 
595 795 -5.975235 -1.208597 3.031 
605 795 -5.779239 -0.904002 1.920 
615 795 -5.765980 -0.945452 1.535 
625 795 -5.752720 -0.986903 7.416 
635 795 -5.693112 -0.898172 1.558 
645 795 -5.373918 -0.790018 1.331 
655 795 -5.354636 -0.928779 1.463 
665 795 -5.594447 -1.082904 2.897 
675 795 -5.722868 -1.161561 1.924 
685 795 -5.804645 -1.359037 2.084 
695 795 -5.839639 -1.732599 2.324 
705 795 -5.912706 -1.984416 2.566 
715 795 -5.875168 -2.101304 1.857 
725 795 -5.618608 -1.884769 1.768 
735 795 -5.378419 -2.284312 2.178 
745 795 -5.232033 -2.271385 2.763 
755 795 -5.085647 -2.258458 1.821 
765 795 -4.939499 -2.307273 2.079 
775 795 -5.032430 -2.576410 2.414 
785 795 -4.973120 -2.785234 2.074 
795 795 -4.466436 -2.554158 2.689 
805 795 -4.439018 -2.163277 5.909 
815 795 -4.506443 -1.683835 3.097 
825 795 -4.254342 -1.319958 2.020 
835 795 -4.612918 -1.192749 2.849 
845 795 -4.143321 0.391601 2.355 
855 795 -3.673723 1.975951 1.523 
865 795 1.270755 9.560539 1.335 
875 795 3.195938 11.231607 2.116 
885 795 -4.690918 11.215517 2.205 
895 795 -12.577774 11.199427 1.783 
905 795 -4.387606 3.117692 1.152 
915 795 -3.942321 -1.695110 1.470 
925 795 -3.917253 -2.084263 1.471 
935 795 -4.558403 -1.134725 2.145 
945 795 -4.490386 -1.403664 1.785 
955 795 -4.219964 -3.565787 2.246 
965 795 -4.128667 -3.040522 1.075 
975 795 -4.037370 -2.515257 1.030 
985 795 -4.329175 -1.878175 1.404 
995 795 -4.685665 -1.884585 1.630 
1005 795 -4.731958 -1.959932 2.104 
1015 795 -5.024717 -1.216730 1.680 
1025 795 -5.554845 -0.742232 1.233 
1035 795 -6.075425 -1.191656 1.030 
1045 795 -6.596005 -1.641080 1.226 
1055 795 -7.116585 -2.090505 1.057 
1065 795 -5.501667 -0.767758 1.097 
1075 795 -5.179018 -0.225545 1.178 
1085 795 -5.008020 -8.979610 1.006 
1095 795 -4.369403 -19.186341 1.716 
1105 795 -3.917769 -20.701067 1.342 
1115 795 -3.466135 -22.215792 1.266 
1125 795 -3.014502 -23.730518 1.004 
1135 795 -2.562868 -25.245243 1.193 
1145 795 -2.111234 -26.759969 1.281 
1155 795 -3.173263 -27.232616 1.001 
1165 795 -4.235293 -27.705263 1.179 
1175 795 -5.297322 -28.177909 1.030 
1185 795 -2.945183 -27.868978 1.080 
1195 795 -2.604977 -27.098064 1.087 
1205 795 -2.264771 -26.327151 1.325 
1215 795 2.678213 -23.511447 1.283 
1225 795 7.361709 -18.398268 1.351 
1235 795 9.354108 -11.078943 1.376 
1245 795 6.445719 -3.510963 1.037 
1255 795 3.105189 1.085058 1.150 
1265 795 -0.457098 4.834147 1.177 
1275 795 -1.299543 4.283896 1.331 
5 785 -0.391249 0.160905 1.154 
15 785 -0.104753 -0.692915 1.154 
25 785 1.818012 -2.576517 1.764 
35 785 4.631395 -2.109167 1.558 
45 785 3.983745 -0.164437 1.088 
55 785 2.759381 0.278246 1.008 
65 785 1.535016 0.720929 1.075 
75 785 0.406392 1.907866 1.019 
85 785 -0.722233 3.094802 1.143 
95 785 -0.310506 1.690997 1.383 
105 785 0.101220 0.287193 1.105 
115 785 4.140447 -6.423503 1.111 
125 785 8.179673 -13.134198 1.101 
135 785 8.171998 -10.194038 1.064 
145 785 5.722757 -16.539284 1.351 
155 785 1.229583 -18.584367 1.145 
165 785 -3.717232 -16.749418 1.359 
175 785 -7.393635 -14.811200 1.118 
185 785 -8.438468 -11.579984 2.648 
195 785 -5.337406 0.102545 1.232 
205 785 -7.374002 1.049812 1.134 
215 785 -7.024673 0.557213 1.360 
225 785 -6.675345 0.064614 1.585 
235 785 -6.496791 0.574149 1.458 
245 785 -6.218649 0.469562 1.521 
255 785 -6.180516 0.638748 2.045 
265 785 -6.207653 0.739444 2.429 
275 785 -6.281987 0.689460 3.135 
285 785 -6.015378 0.781892 2.523 
295 785 -5.871477 0.888466 1.613 
305 785 -6.266370 0.935858 1.491 
315 785 -6.253601 1.167278 2.654 
325 785 -5.929961 0.812896 1.902 
335 785 -5.714901 0.306467 3.193 
345 785 -5.947494 0.205491 3.808 
355 785 -6.007607 0.027712 4.522 
365 785 -5.944710 -0.114321 4.334 
375 785 -5.964711 -0.049341 4.534 
385 785 -5.984919 -0.012750 2.824 
395 785 -5.932346 0.193572 5.914 
405 785 -5.924360 0.428801 3.730 
415 785 -6.064068 0.195938 1.645 
425 785 -6.309609 -0.248015 1.292 
435 785 -6.398245 -0.527658 1.362 
445 785 -6.463508 -0.511313 3.861 
455 785 -6.035155 -0.260750 3.037 
465 785 -5.502800 -0.337208 1.643 
475 785 -5.398456 -0.198480 1.834 
485 785 -5.704055 -0.293635 2.120 
495 785 -5.822617 -0.645123 1.993 
505 785 -5.518919 -0.714022 3.043 
515 785 -5.514208 -0.864158 2.489 
525 785 -5.729497 -1.156381 2.288 
535 785 -5.931399 -1.477804 3.455 
545 785 -5.688043 -1.484223 1.761 
555 785 -5.411356 -0.983490 2.177 
565 785 -5.396571 -1.169899 1.007 
575 785 -5.487282 -1.425386 2.360 
585 785 -5.747201 -1.375016 2.213 
595 785 -5.952154 -1.254108 3.031 
605 785 -5.781104 -0.978494 1.920 
615 785 -5.491058 -0.923510 1.535 
625 785 -5.680956 -1.121924 7.416 
635 785 -5.639355 -1.046240 1.558 
645 785 -5.351492 -0.968357 1.331 
655 785 -5.340654 -1.093614 1.463 
665 785 -5.525556 -1.244283 2.897 
675 785 -5.589192 -1.328388 1.924 
685 785 -5.677786 -1.565990 2.084 
695 785 -5.793736 -1.905409 2.324 
705 785 -5.918909 -2.093382 2.566 
715 785 -5.886588 -2.158498 1.857 
725 785 -5.642323 -1.941342 1.768 
735 785 -5.625688 -2.280240 2.178 
745 785 -5.429883 -2.315601 2.763 
755 785 -5.122788 -2.275749 1.821 
765 785 -4.953845 -2.348504 2.079 
775 785 -4.974839 -2.612815 2.414 
785 785 -4.781700 -2.853554 2.074 
795 785 -4.488710 -2.517626 2.689 
805 785 -4.448164 -2.048767 5.909 
815 785 -4.465911 -1.486728 3.097 
825 785 -4.123485 -1.073050 2.020 
835 785 -4.344597 -0.807515 2.849 
845 785 -4.646652 -0.585010 2.355 
855 785 -3.480604 2.061822 1.523 
865 785 1.442973 9.389278 1.335 
875 785 3.172017 10.534874 2.116 
885 785 7.009464 11.664765 2.205 
895 785 -12.267922 10.434361 1.783 
905 785 -3.634278 3.430066 1.152 
915 785 -3.538988 -1.354175 1.470 
925 785 -3.698909 -1.805618 1.471 
935 785 -4.443555 -0.713217 2.145 
945 785 -4.376638 -1.025200 1.785 
955 785 -4.324692 -2.267729 2.246 
965 785 -4.107833 -2.523782 1.075 
975 785 -4.013533 -2.161689 1.030 
985 785 -4.140106 -1.456282 1.404 
995 785 -4.604047 -1.638506 1.630 
1005 785 -4.671979 -1.712000 2.104 
1015 785 -4.897324 -1.196157 1.680 
1025 785 -5.198063 -0.751811 1.233 
1035 785 -6.221475 -2.364550 1.030 
1045 785 -7.843296 -3.218355 1.226 
1055 785 -6.163128 -1.524101 1.057 
1065 785 -4.779582 0.073830 1.097 
1075 785 -2.766608 -2.354886 1.178 
1085 785 -2.437663 -9.637496 1.006 
1095 785 -2.108719 -16.920105 1.716 
1105 785 -1.396804 -21.430365 1.342 
1115 785 0.158184 -21.198249 1.266 
1125 785 -2.015289 -21.818525 1.004 
1135 785 0.005372 -21.381815 1.193 
1145 785 1.674579 -24.026768 1.281 
1155 785 -1.117926 -26.744958 1.001 
1165 785 -4.446336 -27.006427 1.179 
1175 785 -6.556728 -27.468773 1.030 
1185 785 -1.745783 -28.285965 1.080 
1195 785 -1.678088 -28.502585 1.087 
1205 785 0.090823 -27.610058 1.325 
1215 785 5.289143 -25.300941 1.283 
1225 785 9.873273 -21.172095 1.351 
1235 785 11.699676 -15.053059 1.376 
1245 785 8.462917 -7.752976 1.037 
1255 785 4.829143 -2.989771 1.150 
1265 785 0.456308 0.702672 1.177 
1275 785 -2.657753 3.176798 1.331 
5 775 -1.107419 -0.834133 1.525 
15 775 -0.095228 -0.745946 1.525 
25 775 1.241914 -1.977490 1.254 
35 775 2.608782 -1.037963 1.077 
45 775 3.076440 1.529269 1.182 
55 775 2.036842 1.385780 1.128 
65 775 0.997243 1.242290 1.263 
75 775 0.910983 1.048009 1.137 
85 775 -0.590534 1.312712 1.058 
95 775 0.500150 -1.864490 1.578 
105 775 1.217161 -7.469889 1.277 
115 775 1.650284 -12.554378 1.042 
125 775 4.222397 -9.978276 1.228 
135 775 5.498413 -7.721120 1.223 
145 775 3.850581 -7.469735 1.482 
155 775 -0.658114 -12.319120 1.280 
165 775 -4.230713 -12.988964 1.689 
175 775 -6.779352 -10.573765 1.607 
185 775 -6.865616 -9.336900 3.216 
195 775 -5.309980 -8.331478 1.375 
205 775 -5.957156 -3.983790 1.006 
215 775 -6.604331 0.363898 1.004 
225 775 -5.385846 0.491709 2.157 
235 775 -5.242596 1.003777 1.580 
245 775 -5.419366 1.081298 1.121 
255 775 -5.561619 1.189377 1.290 
265 775 -5.817649 1.064101 2.556 
275 775 -5.923594 0.815289 3.134 
285 775 -5.925233 0.700544 2.834 
295 775 -5.967723 0.873240 3.217 
305 775 -5.982094 1.059657 3.222 
315 775 -6.059521 0.811799 3.754 
325 775 -5.915270 0.555255 2.293 
335 775 -5.812230 0.334929 4.801 
345 775 -5.899317 0.293596 2.730 
355 775 -5.941256 0.097849 1.938 
365 775 -5.844676 -0.034511 3.524 
375 775 -5.976230 0.077396 2.577 
385 775 -5.973440 -0.033257 1.349 
395 775 -5.925863 0.179028 3.341 
405 775 -5.962740 0.449835 3.399 
415 775 -5.993783 0.239212 1.732 
425 775 -6.147460 -0.168124 1.233 
435 775 -6.216747 -0.309929 1.766 
445 775 -6.368484 -0.298966 1.487 
455 775 -6.239807 -0.345894 1.226 
465 775 -5.643458 -0.638421 2.653 
475 775 -5.521824 -0.555046 1.435 
485 775 -5.798346 -0.606180 1.704 
495 775 -5.930373 -0.759452 3.322 
505 775 -5.730476 -0.839583 3.140 
515 775 -5.654217 -0.939676 3.141 
525 775 -5.841528 -1.187581 1.860 
535 775 -6.017943 -1.390774 9.923 
545 775 -5.672821 -0.928935 3.371 
555 775 -5.363980 -0.756771 2.075 
565 775 -5.151474 -1.239704 1.753 
575 775 -5.286678 -1.569930 1.555 
585 775 -5.584803 -1.572923 1.305 
595 775 -6.018765 -1.305860 2.283 
605 775 -5.836691 -1.167589 2.147 
615 775 -5.418041 -1.105714 2.156 
625 775 -5.409106 -1.166415 20.000 
635 775 -5.688537 -1.070206 6.099 
645 775 -5.399923 -1.039873 4.523 
655 775 -5.231234 -1.151465 5.074 
665 775 -5.284219 -1.263321 1.699 
675 775 -5.372705 -1.179646 1.426 
685 775 -5.586241 -1.550187 1.676 
695 775 -5.765875 -1.805005 1.065 
705 775 -5.999153 -2.053453 1.458 
715 775 -6.027886 -1.931453 1.739 
725 775 -5.772004 -1.830913 1.158 
735 775 -5.872957 -2.276168 2.900 
745 775 -5.788442 -2.386743 5.122 
755 775 -5.202598 -2.071663 2.738 
765 775 -4.876356 -2.280991 3.347 
775 775 -4.747816 -2.635823 8.870 
785 775 -4.593701 -2.831475 2.183 
795 775 -4.434109 -2.498022 2.951 
805 775 -4.467305 -1.961647 1.698 
815 775 -4.598483 -1.398737 1.483 
825 775 -4.363048 -1.122021 3.554 
835 775 -4.249734 -0.654704 2.422 
845 775 -4.557358 -0.673071 2.217 
855 775 -3.631357 1.174203 1.284 
865 775 -0.683977 5.504597 1.026 
875 775 3.028139 8.144175 1.619 
885 775 6.740254 10.783754 3.164 
895 775 -8.041743 4.711812 2.395 
905 775 -4.022528 -0.705955 1.516 
915 775 -3.701801 -1.633133 1.301 
925 775 -3.922285 -1.620706 1.067 
935 775 -4.379479 -0.433148 1.236 
945 775 -4.562510 -0.369294 3.033 
955 775 -4.545519 -0.999943 15.051 
965 775 -4.232071 -1.445429 3.818 
975 775 -3.997166 -1.368511 2.345 
985 775 -4.032548 -0.966599 2.063 
995 775 -4.413054 -1.006188 1.937 
1005 775 -4.671804 -1.074484 1.212 
1015 775 -4.642682 -0.612267 1.065 
1025 775 -4.346906 -0.433194 1.007 
1035 775 -4.051131 -0.254121 2.652 
1045 775 -2.468463 -0.309290 2.771 
1055 775 -2.514589 0.011139 1.747 
1065 775 -3.920240 -0.000869 1.038 
1075 775 -2.931418 -1.172789 1.004 
1085 775 -2.235790 -6.338138 1.585 
1095 775 -1.540162 -11.503486 1.352 
1105 775 0.322237 -14.361020 1.462 
1115 775 2.711434 -12.307796 2.062 
1125 775 3.590358 -12.719184 2.179 
1135 775 3.704400 -14.440251 1.286 
1145 775 3.708495 -19.374073 1.786 
1155 775 -2.449208 -23.110736 1.130 
1165 775 -3.340234 -23.529218 1.017 
1175 775 -5.162885 -24.613057 1.169 
1185 775 -0.494123 -24.595839 1.271 
1195 775 1.024585 -25.536205 1.237 
1205 775 3.691942 -25.209729 1.830 
1215 775 9.503877 -22.551734 2.466 
1225 775 12.769290 -19.914462 1.513 
1235 775 13.023230 -14.926214 1.733 
1245 775 12.601131 -11.377774 1.649 
1255 775 8.062312 -8.458809 1.107 
1265 775 7.138604 -6.725491 1.128 
1275 775 4.142652 -4.487042 1.095 
5 765 -0.149622 0.619385 1.683 
15 765 -0.085704 -0.798978 1.683 
25 765 0.665815 -1.378462 1.289 
35 765 1.989606 -0.617494 1.279 
45 765 3.684033 1.408716 1.428 
55 765 5.327855 1.308385 1.647 
65 765 6.971677 1.208054 1.035 
75 765 2.457938 -1.193066 1.605 
85 765 -0.458835 -0.469378 1.241 
95 765 1.005522 -1.218382 1.081 
105 765 0.388195 -7.544632 1.141 
115 765 -0.095447 -11.332534 1.417 
125 765 1.795049 -7.696078 1.138 
135 765 3.320597 -4.139048 1.017 
145 765 1.631490 -4.511587 1.075 
155 765 -1.907690 -6.144221 1.363 
165 765 -4.543501 -7.626969 1.369 
175 765 -6.007600 -8.420121 3.524 
185 765 -5.328125 -6.513403 1.323 
195 765 -4.995089 -4.694200 1.011 
205 765 -5.979498 -1.381287 1.005 
215 765 -5.989058 0.003158 1.000 
225 765 -4.986851 0.089657 2.544 
235 765 -4.599882 1.438845 2.611 
245 765 -4.613228 1.832200 8.474 
255 765 -4.858722 1.658612 2.839 
265 765 -5.128838 1.271019 1.943 
275 765 -5.311422 0.880791 1.289 
285 765 -5.715716 0.605783 1.741 
295 765 -6.020110 0.362992 2.003 
305 765 -5.953125 0.221492 5.848 
315 765 -5.847260 0.321326 1.618 
325 765 -5.824401 0.332520 2.120 
335 765 -5.912433 0.068242 1.977 
345 765 -6.121059 0.152956 1.670 
355 765 -6.128027 0.178851 1.499 
365 765 -5.841738 0.257814 1.615 
375 765 -5.844080 0.171507 1.555 
385 765 -5.978634 -0.181541 1.019 
395 765 -5.949725 -0.032989 1.328 
405 765 -5.942729 0.158451 3.660 
415 765 -5.783650 0.054762 8.075 
425 765 -5.810019 -0.134710 20.000 
435 765 -5.885441 -0.195915 2.110 
445 765 -6.178128 -0.195479 4.199 
455 765 -6.448324 -0.385537 2.773 
465 765 -6.057275 -0.560945 1.406 
475 765 -5.739981 -0.685176 1.340 
485 765 -5.918844 -0.909239 2.779 
495 765 -5.912421 -0.945652 1.691 
505 765 -5.881432 -0.732185 2.224 
515 765 -5.702642 -1.040745 1.256 
525 765 -5.888704 -1.351825 3.550 
535 765 -5.924666 -1.317025 5.745 
545 765 -5.626915 -0.738949 8.328 
555 765 -5.380574 -0.647179 2.717 
565 765 -5.261212 -1.075449 2.485 
575 765 -5.137209 -1.393645 1.339 
585 765 -5.356400 -1.468787 1.057 
595 765 -6.063955 -1.344784 2.805 
605 765 -6.095712 -1.295028 2.689 
615 765 -5.586624 -1.379966 1.764 
625 765 -5.505231 -1.537695 20.000 
635 765 -5.525244 -1.431581 10.784 
645 765 -5.403369 -1.215075 5.374 
655 765 -5.264323 -1.169905 3.765 
665 765 -5.124749 -0.930858 2.991 
675 765 -5.055133 -1.004406 1.576 
685 765 -5.179553 -1.415774 1.425 
695 765 -5.700457 -1.674480 2.633 
705 765 -6.162275 -1.724985 2.848 
715 765 -6.091284 -1.684469 2.488 
725 765 -5.861208 -1.703144 1.888 
735 765 -5.766700 -2.072638 2.180 
745 765 -5.534827 -2.055660 3.054 
755 765 -5.150564 -1.835355 3.503 
765 765 -4.936288 -2.066719 3.791 
775 765 -4.596989 -2.558961 4.490 
785 765 -4.432021 -2.782387 6.123 
795 765 -4.484895 -2.432192 2.519 
805 765 -4.404772 -1.825254 2.954 
815 765 -4.469398 -1.337870 2.323 
825 765 -4.555281 -1.166951 3.530 
835 765 -4.440550 -0.773437 2.119 
845 765 -4.944492 -0.922438 2.479 
855 765 -4.193640 0.063584 5.979 
865 765 -3.194477 1.012618 5.223 
875 765 -2.663617 1.356537 1.038 
885 765 -2.132757 1.700456 1.959 
895 765 -3.815565 -1.010737 1.103 
905 765 -4.281161 -1.669712 1.250 
915 765 -4.209401 -2.010746 2.161 
925 765 -4.216180 -1.807236 1.237 
935 765 -4.373050 -0.980397 1.092 
945 765 -4.842268 -0.338153 2.033 
955 765 -4.656685 -0.606252 9.056 
965 765 -4.161134 -1.173547 20.000 
975 765 -3.990018 -1.099723 2.721 
985 765 -4.061675 -0.868912 2.371 
995 765 -4.206975 -0.637614 2.411 
1005 765 -4.529427 -0.373707 3.716 
1015 765 -4.600011 0.159398 1.595 
1025 765 -4.120875 0.029571 1.543 
1035 765 -3.182377 -0.591640 1.302 
1045 765 -2.071413 -0.566357 20.000 
1055 765 -2.849369 -0.412324 1.033 
1065 765 -3.303285 -0.483603 8.756 
1075 765 -4.150173 -0.045014 2.967 
1085 765 -3.213468 -2.824036 1.382 
1095 765 -2.276763 -5.603057 1.645 
1105 765 0.431967 -7.162451 1.154 
1115 765 3.696287 -6.530747 1.496 
1125 765 3.395982 -7.402819 3.058 
1135 765 3.763293 -8.496273 1.020 
1145 765 3.726890 -14.790743 1.251 
1155 765 1.015289 -20.184489 1.399 
1165 765 -2.234132 -20.052010 1.942 
1175 765 -1.083905 -20.517930 1.026 
1185 765 2.297484 -19.955258 1.175 
1195 765 3.715033 -19.538494 1.011 
1205 765 7.910577 -19.844711 1.315 
1215 765 13.718610 -19.802527 1.359 
1225 765 17.240181 -19.423379 1.003 
1235 765 17.647370 -16.688453 1.248 
1245 765 16.739346 -15.002572 1.489 
1255 765 13.545029 -14.977100 1.286 
1265 765 13.937897 -14.472234 1.021 
1275 765 12.524444 -12.478415 1.129 
5 755 2.618133 12.745011 1.188 
15 755 1.892897 10.975643 1.188 
25 755 2.522844 5.445147 1.108 
35 755 3.545807 0.490535 1.048 
45 755 4.972269 1.054381 1.375 
55 755 6.571488 2.060325 1.065 
65 755 6.977695 1.294661 1.324 
75 755 5.883770 -0.314800 1.020 
85 755 0.524345 -1.261575 1.094 
95 755 1.429142 -0.857448 1.062 
105 755 -0.463989 -5.422203 1.314 
115 755 -1.841178 -10.110690 1.216 
125 755 -3.391328 -8.979871 1.223 
135 755 1.142780 -0.556977 1.071 
145 755 -0.149261 -0.911409 1.303 
155 755 -2.188637 -3.009705 1.155 
165 755 -3.708515 -3.548637 1.259 
175 755 -4.887491 -3.675722 1.143 
185 755 -5.018896 -2.682373 1.158 
195 755 -5.227835 0.307969 1.146 
205 755 -6.339075 0.186442 1.289 
215 755 -5.373785 -0.357581 1.425 
225 755 -4.846647 0.323519 1.248 
235 755 -4.339603 1.451549 3.270 
245 755 -4.233856 1.884569 6.567 
255 755 -4.406164 1.614408 4.320 
265 755 -4.401882 1.103563 2.040 
275 755 -4.507913 0.564431 1.793 
285 755 -5.281007 0.360785 1.272 
295 755 -5.944350 0.024195 1.318 
305 755 -5.915275 0.143072 2.253 
315 755 -5.828256 0.294732 1.406 
325 755 -5.718316 0.228837 1.973 
335 755 -5.752134 -0.203618 1.509 
345 755 -6.139413 0.205627 1.054 
355 755 -6.084411 0.146327 1.045 
365 755 -6.190022 0.150055 1.420 
375 755 -5.990678 -0.115875 1.140 
385 755 -5.932301 -0.455322 1.442 
395 755 -5.973587 -0.245005 1.035 
405 755 -5.585313 -0.101085 3.731 
415 755 -5.599747 -0.095510 11.333 
425 755 -5.742059 -0.233647 14.939 
435 755 -5.732679 -0.218268 4.688 
445 755 -6.006326 -0.096822 2.026 
455 755 -6.468008 -0.381291 3.323 
465 755 -6.326704 -0.451931 2.151 
475 755 -5.977757 -0.553161 1.315 
485 755 -5.888661 -0.740170 2.323 
495 755 -5.762044 -1.071253 1.472 
505 755 -5.768914 -1.215673 1.622 
515 755 -5.755873 -1.852337 1.075 
525 755 -5.602439 -1.588112 1.654 
535 755 -5.548159 -1.414646 2.842 
545 755 -5.521090 -0.822905 1.941 
555 755 -5.521641 -0.709426 3.336 
565 755 -5.651311 -1.035867 3.158 
575 755 -5.281219 -1.284417 1.099 
585 755 -5.422756 -1.149445 1.564 
595 755 -5.818348 -1.109805 3.772 
605 755 -5.864862 -1.293899 2.515 
615 755 -5.733210 -1.543932 2.053 
625 755 -5.595762 -1.771491 20.000 
635 755 -5.513585 -1.514771 37.150 
645 755 -5.423005 -1.307442 2.541 
655 755 -5.302675 -1.279674 1.716 
665 755 -5.162058 -1.181235 4.102 
675 755 -4.990727 -1.098569 1.653 
685 755 -5.041674 -1.418838 1.737 
695 755 -5.535142 -1.858727 3.306 
705 755 -6.151042 -1.847603 1.280 
715 755 -5.871317 -1.580614 3.162 
725 755 -5.800261 -1.518127 1.866 
735 755 -5.697705 -2.033920 1.586 
745 755 -5.287724 -1.851570 1.714 
755 755 -5.105772 -1.893248 2.520 
765 755 -4.916998 -2.105756 2.577 
775 755 -4.623195 -2.327160 1.452 
785 755 -4.570435 -2.412968 6.023 
795 755 -4.424277 -2.081912 1.788 
805 755 -4.305676 -1.620184 5.822 
815 755 -4.358802 -1.267479 4.240 
825 755 -4.716277 -1.013442 2.465 
835 755 -4.825230 -0.892315 1.107 
845 755 -4.703824 -1.118720 3.896 
855 755 -4.449329 -0.935900 12.210 
865 755 -3.903416 -0.690536 12.261 
875 755 -2.855486 0.735007 1.040 
885 755 -3.057152 0.326073 1.190 
895 755 -4.363791 -1.233632 2.763 
905 755 -4.571967 -1.408372 2.346 
915 755 -4.663211 -1.614222 2.634 
925 755 -4.590282 -1.432211 1.630 
935 755 -4.542683 -1.190880 1.176 
945 755 -4.718586 -0.641223 1.043 
955 755 -4.645546 -0.731269 3.156 
965 755 -4.234424 -1.069874 2.009 
975 755 -4.102822 -1.200534 1.535 
985 755 -4.080387 -1.203996 1.561 
995 755 -4.185237 -1.369016 1.604 
1005 755 -4.283390 -0.717170 2.102 
1015 755 -4.557341 0.931063 1.008 
1025 755 -4.537567 1.292618 1.023 
1035 755 -3.625811 -1.531360 1.115 
1045 755 -2.891877 -1.145158 1.429 
1055 755 -3.184148 -0.835787 1.245 
1065 755 -3.812717 -0.761910 3.157 
1075 755 -4.106246 -0.354007 5.491 
1085 755 -3.301096 -0.882027 2.400 
1095 755 -3.653938 -1.353951 1.082 
1105 755 -0.626332 -2.552493 1.153 
1115 755 2.452527 -1.924038 7.437 
1125 755 3.201606 -2.086453 20.000 
1135 755 3.738018 -4.899412 9.317 
1145 755 3.745285 -10.207413 1.037 
1155 755 4.479787 -17.258243 1.224 
1165 755 3.962154 -16.328108 1.441 
1175 755 3.711962 -16.119631 1.152 
1185 755 2.387900 -15.115691 1.060 
1195 755 4.829208 -14.226331 1.167 
1205 755 10.845856 -14.635400 1.442 
1215 755 17.573369 -16.244172 1.480 
1225 755 19.602916 -17.668455 1.132 
1235 755 22.202470 -18.434311 1.159 
1245 755 21.369422 -17.147453 1.653 
1255 755 19.579212 -18.198661 1.488 
1265 755 14.291037 -18.623108 1.535 
1275 755 6.581562 -16.635300 1.692 
5 745 -2.063363 10.519298 1.799 
15 745 -2.573171 8.695264 1.799 
25 745 -0.570380 5.271678 1.572 
35 745 2.174008 2.251108 1.671 
45 745 4.317133 2.818211 1.198 
55 745 5.349085 1.441090 1.093 
65 745 5.841063 1.411350 1.180 
75 745 4.506049 -1.393519 1.104 
85 745 0.858433 -2.845089 1.030 
95 745 0.864130 -0.914054 1.192 
105 745 -1.794470 -2.558543 1.080 
115 745 -4.097284 -7.051921 1.100 
125 745 -4.878174 -6.033354 1.572 
135 745 -0.486412 0.530931 1.056 
145 745 -1.408014 1.633257 1.122 
155 745 -3.166763 0.287678 1.146 
165 745 -4.275406 0.238363 1.862 
175 745 -5.168535 -0.085580 1.480 
185 745 -5.500903 -0.261899 1.190 
195 745 -6.066480 -0.246848 1.214 
205 745 -6.632057 -0.231797 1.360 
215 745 -5.618686 -0.085379 1.858 
225 745 -4.943637 -0.005175 2.468 
235 745 -4.417185 1.215067 1.992 
245 745 -4.273150 1.631575 2.312 
255 745 -4.320393 1.233203 3.056 
265 745 -4.190670 0.753907 3.152 
275 745 -4.178664 0.287554 2.305 
285 745 -4.680224 0.063585 1.194 
295 745 -5.341194 0.454778 1.411 
305 745 -5.698411 0.357087 3.288 
315 745 -5.813444 0.435143 3.846 
325 745 -5.864021 0.330952 1.471 
335 745 -5.916178 0.154988 1.272 
345 745 -6.157768 0.258299 1.575 
355 745 -6.040794 0.113802 1.056 
365 745 -5.861850 -0.115890 1.561 
375 745 -5.628519 -0.286543 2.961 
385 745 -5.605258 -0.313575 2.033 
395 745 -5.442836 -0.093006 1.853 
405 745 -5.184512 -0.015430 3.850 
415 745 -5.161808 0.093915 8.041 
425 745 -5.548667 -0.209113 5.576 
435 745 -5.529074 -0.278545 2.381 
445 745 -5.344508 -0.154496 1.898 
455 745 -6.041989 -0.101128 3.364 
465 745 -6.193217 -0.255256 4.821 
475 745 -5.946515 -0.422840 2.577 
485 745 -5.672766 -0.783071 2.634 
495 745 -5.494985 -0.857774 3.122 
505 745 -5.566281 -0.968178 2.056 
515 745 -5.521994 -1.372315 2.033 
525 745 -5.320591 -1.527381 3.040 
535 745 -5.440894 -1.184650 2.223 
545 745 -5.499747 -0.931625 2.518 
555 745 -5.627110 -0.994593 2.238 
565 745 -5.602935 -1.105901 2.009 
575 745 -5.199751 -1.073529 1.432 
585 745 -5.466172 -0.918783 2.562 
595 745 -5.631545 -1.002609 2.947 
605 745 -5.528159 -1.080910 4.436 
615 745 -5.440346 -1.115345 3.197 
625 745 -5.449617 -1.182999 6.666 
635 745 -5.297656 -1.221859 5.202 
645 745 -5.229673 -1.300601 4.132 
655 745 -5.360156 -1.356312 2.597 
665 745 -5.462964 -1.360613 4.771 
675 745 -5.193687 -1.200620 2.238 
685 745 -4.984550 -1.580574 1.568 
695 745 -5.356633 -2.137087 2.863 
705 745 -5.648826 -1.859696 1.682 
715 745 -5.671608 -1.455603 1.806 
725 745 -5.932988 -1.497531 2.169 
735 745 -5.812513 -1.557999 1.638 
745 745 -5.049665 -1.577806 2.650 
755 745 -5.222356 -1.919882 2.424 
765 745 -4.876424 -1.944371 2.396 
775 745 -4.617322 -1.988464 4.195 
785 745 -4.550179 -1.817322 2.108 
795 745 -4.506589 -1.642874 1.792 
805 745 -4.459334 -1.407931 2.035 
815 745 -4.506408 -1.228887 2.386 
825 745 -4.976363 -1.065934 2.029 
835 745 -4.663682 -1.032619 3.926 
845 745 -4.554048 -1.206681 5.797 
855 745 -4.432171 -1.297522 19.862 
865 745 -4.008132 -1.021231 114.252 
875 745 -3.831653 -0.949022 1.007 
885 745 -3.981546 -1.048311 3.901 
895 745 -4.255911 -1.274175 12.444 
905 745 -4.432575 -1.357669 2.836 
915 745 -4.849830 -1.673354 1.874 
925 745 -4.814844 -1.724181 1.270 
935 745 -4.685491 -1.513867 1.587 
945 745 -4.629622 -0.963231 3.966 
955 745 -4.546248 -0.906867 1.451 
965 745 -4.400015 -0.994387 1.490 
975 745 -4.229293 -1.323023 3.625 
985 745 -4.091109 -1.363288 2.271 
995 745 -4.075690 -1.318768 1.511 
1005 745 -4.269887 -1.192759 1.685 
1015 745 -4.242806 -1.410568 2.719 
1025 745 -4.064604 -2.396812 1.307 
1035 745 -3.936018 -2.450135 1.497 
1045 745 -4.044333 -2.001111 1.066 
1055 745 -4.103527 -1.226461 1.294 
1065 745 -4.224499 -0.789998 2.451 
1075 745 -4.062318 -0.663000 2.212 
1085 745 -3.392009 -0.892294 1.531 
1095 745 -2.708703 -1.573137 1.577 
1105 745 -0.963301 -1.312965 1.331 
1115 745 0.743026 -0.378608 20.000 
1125 745 1.856431 -0.573539 31.846 
1135 745 2.749718 -2.974122 1.484 
1145 745 2.453247 -7.593437 1.964 
1155 745 3.727324 -12.600119 1.708 
1165 745 4.644378 -13.303227 1.211 
1175 745 4.209993 -12.612674 1.438 
1185 745 1.351749 -10.804189 1.511 
1195 745 4.060722 -10.660452 1.636 
1205 745 10.592950 -10.185193 1.079 
1215 745 17.905707 -11.633202 1.053 
1225 745 21.965652 -15.913531 1.230 
1235 745 23.506077 -17.999626 1.133 
1245 745 23.820333 -17.723226 1.290 
1255 745 24.380273 -17.644104 1.079 
1265 745 17.336375 -19.512571 1.396 
1275 745 0.638681 -20.792185 1.363 
5 735 -1.224905 -2.090342 1.026 
15 735 -1.891985 -1.809713 1.026 
25 735 -1.126925 -3.293172 1.014 
35 735 0.099819 -3.398036 2.233 
45 735 2.626380 -1.199839 1.035 
55 735 4.126682 0.821854 1.040 
65 735 4.457283 0.057032 1.021 
75 735 3.161101 -1.936012 1.217 
85 735 1.192521 -4.428604 1.131 
95 735 0.299118 -0.970659 1.307 
105 735 -2.799002 -1.653054 1.061 
115 735 -6.176833 -3.863165 1.145 
125 735 -5.964190 -3.255808 1.326 
135 735 -2.604030 0.684033 1.110 
145 735 -3.587187 1.311498 1.386 
155 735 -4.569360 1.059593 1.684 
165 735 -5.546955 0.516208 1.227 
175 735 -6.886772 1.326723 1.112 
185 735 -7.957424 2.490503 1.645 
195 735 -7.514898 1.764560 1.072 
205 735 -7.072372 1.038616 1.008 
215 735 -5.416883 -0.519861 2.433 
225 735 -4.988264 0.026459 1.363 
235 735 -4.772055 0.943067 1.027 
245 735 -4.607798 1.453847 1.165 
255 735 -4.401405 1.026312 1.171 
265 735 -4.357172 0.662030 1.176 
275 735 -4.349314 0.217052 1.507 
285 735 -4.319319 -0.208823 1.148 
295 735 -4.733557 -0.086274 1.869 
305 735 -5.046340 -0.171536 1.492 
315 735 -5.458297 0.208690 1.177 
325 735 -6.009727 0.433068 1.035 
335 735 -6.091105 0.378858 1.296 
345 735 -6.176123 0.310970 2.369 
355 735 -5.895388 0.047560 2.154 
365 735 -5.614654 -0.215851 1.516 
375 735 -5.313001 -0.371894 1.479 
385 735 -5.121133 -0.187351 2.672 
395 735 -5.213734 -0.146647 1.069 
405 735 -4.560675 -0.335997 1.073 
415 735 -4.907219 -0.431287 1.187 
425 735 -5.253764 -0.526577 1.198 
435 735 -5.292830 -0.550011 1.180 
445 735 -5.177385 -0.234026 1.106 
455 735 -5.633835 0.241573 2.042 
465 735 -5.793228 -0.013959 1.339 
475 735 -5.826136 -0.223061 1.165 
485 735 -5.598084 -0.556091 1.741 
495 735 -5.414009 -0.307952 2.258 
505 735 -5.792891 -0.264352 1.947 
515 735 -5.808027 -0.372248 4.055 
525 735 -5.617237 -0.482292 17.774 
535 735 -5.531718 -0.806732 3.088 
545 735 -5.314923 -0.816163 1.728 
555 735 -5.183886 -0.742249 1.151 
565 735 -5.126527 -1.190113 1.561 
575 735 -5.271281 -1.216620 1.399 
585 735 -5.520333 -1.113778 2.210 
595 735 -5.457825 -1.118423 4.972 
605 735 -5.136577 -1.053999 4.845 
615 735 -5.220376 -1.020547 1.012 
625 735 -5.123414 -0.908606 2.936 
635 735 -5.117728 -1.218174 3.460 
645 735 -5.211601 -1.409334 2.255 
655 735 -5.358930 -1.459255 1.785 
665 735 -5.172426 -1.311836 2.342 
675 735 -5.152744 -1.265924 2.054 
685 735 -4.679118 -1.489500 1.135 
695 735 -5.205738 -1.666065 1.032 
705 735 -5.499488 -1.685504 2.552 
715 735 -5.872783 -1.484811 2.805 
725 735 -6.034048 -1.375494 2.866 
735 735 -5.769026 -0.986621 2.417 
745 735 -5.226578 -1.112821 2.431 
755 735 -4.934813 -1.549696 6.241 
765 735 -4.671475 -1.771287 6.186 
775 735 -4.471001 -1.790019 3.372 
785 735 -4.412209 -1.578820 2.891 
795 735 -4.643368 -1.290485 4.912 
805 735 -4.437129 -1.376739 3.219 
815 735 -4.307364 -1.156302 2.641 
825 735 -4.632416 -0.993800 3.441 
835 735 -4.329279 -1.156996 5.719 
845 735 -4.386758 -1.398482 7.606 
855 735 -4.347531 -1.369193 1.658 
865 735 -4.197313 -1.149579 1.687 
875 735 -4.032300 -0.755362 1.608 
885 735 -4.014380 -1.049921 3.592 