TITLE = "B00191"
VARIABLES = "x", "y", "u", "v", "sn"
ZONE T="Frame 0", I=128, J=80
5 795 0.000000 -0.000000 1.398 
15 795 0.000000 -0.000000 1.398 
25 795 6.201203 -5.619237 1.035 
35 795 7.580865 -13.822784 1.446 
45 795 8.960527 -22.026331 1.109 
55 795 8.088257 -19.595845 1.179 
65 795 7.215987 -17.165359 1.042 
75 795 6.343717 -14.734874 1.155 
85 795 5.471447 -12.304388 1.010 
95 795 4.599177 -9.873902 1.632 
105 795 3.726907 -7.443416 1.003 
115 795 2.201521 -6.339760 1.269 
125 795 0.676135 -5.236104 1.023 
135 795 -0.849250 -4.132449 1.082 
145 795 -2.374636 -3.028793 1.108 
155 795 -3.900022 -1.925137 1.056 
165 795 -5.425408 -0.821481 1.345 
175 795 -5.792501 0.413687 2.310 
185 795 -5.887085 0.743437 2.187 
195 795 -5.981669 1.073188 5.025 
205 795 -5.185059 1.998213 2.182 
215 795 -5.323987 2.010396 1.010 
225 795 -5.462914 2.022579 3.172 
235 795 -5.661036 1.838074 3.523 
245 795 -5.413356 1.657003 3.353 
255 795 -5.147471 2.309459 1.508 
265 795 -5.838856 4.877182 1.096 
275 795 -6.530242 7.444904 1.230 
285 795 -5.162870 1.918890 1.516 
295 795 -4.934171 1.483239 13.107 
305 795 -4.946677 1.733966 20.000 
315 795 -5.059752 1.766511 15.920 
325 795 -5.293522 2.101566 3.855 
335 795 -5.132947 2.124810 1.532 
345 795 -4.972371 2.148053 1.640 
355 795 -5.064368 0.991065 1.813 
365 795 -4.958326 0.837556 1.334 
375 795 -4.804716 1.233002 1.885 
385 795 -4.800636 1.274055 1.247 
395 795 -4.796556 1.315107 1.042 
405 795 -5.209166 1.018216 1.721 
415 795 -4.988373 1.079931 4.795 
425 795 -4.767581 1.141646 20.000 
435 795 -4.659536 1.681667 3.839 
445 795 -4.503918 1.371814 1.765 
455 795 -4.288287 0.887509 2.035 
465 795 -4.072416 1.137451 2.008 
475 795 -3.843924 1.467810 1.513 
485 795 -3.795081 1.384227 2.443 
495 795 -4.070344 1.086118 3.417 
505 795 -4.232856 0.991022 2.509 
515 795 -4.210505 0.838830 2.088 
525 795 -3.745442 1.019891 2.023 
535 795 -3.510216 1.445696 1.108 
545 795 -3.637142 1.998136 1.007 
555 795 -4.045385 2.344723 1.729 
565 795 -4.193078 2.172468 1.896 
575 795 -4.040051 1.924271 2.517 
585 795 -3.708955 1.846605 5.509 
595 795 -3.784794 1.684255 2.410 
605 795 -3.751049 1.713780 38.778 
615 795 -4.411778 -0.686112 66.715 
625 795 -5.107922 -0.612394 1.499 
635 795 -5.804066 -0.538677 1.012 
645 795 -6.500209 -0.464959 1.212 
655 795 -4.729043 1.059280 2.465 
665 795 -4.082866 0.510906 1.309 
675 795 -4.153485 0.699830 1.561 
685 795 -4.224103 0.888754 1.567 
695 795 -4.440591 0.602803 1.732 
705 795 -4.896294 1.267620 1.034 
715 795 -5.406408 2.006533 1.216 
725 795 -5.342658 1.470409 62.098 
735 795 -5.278909 0.934286 1.777 
745 795 -4.455377 0.045348 1.538 
755 795 -3.300837 -0.025254 1.218 
765 795 -3.193131 0.493349 1.362 
775 795 -3.724386 1.216319 3.084 
785 795 -4.367394 0.907770 2.814 
795 795 -5.339980 0.243863 6.293 
805 795 -5.472260 0.083494 4.493 
815 795 -4.199683 0.010840 2.855 
825 795 -3.834451 -0.309543 1.677 
835 795 -3.469219 -0.629926 1.821 
845 795 -4.594993 0.621603 2.081 
855 795 -5.062805 1.233147 1.571 
865 795 -5.418189 1.951385 1.227 
875 795 -5.437691 2.052818 2.558 
885 795 -5.457194 2.154251 2.214 
895 795 -5.035207 2.015256 1.489 
905 795 -4.857236 1.833683 2.120 
915 795 -5.810398 1.696574 1.786 
925 795 -6.888238 1.525803 2.308 
935 795 -6.441970 1.614343 1.698 
945 795 -5.995702 1.702884 2.162 
955 795 -5.764059 0.677235 2.218 
965 795 -6.307088 0.482164 2.375 
975 795 -6.144505 0.478803 1.844 
985 795 -5.111647 -0.126325 2.327 
995 795 -5.196545 -0.237144 2.424 
1005 795 -5.281443 -0.347963 2.244 
1015 795 -5.243548 -0.166016 1.290 
1025 795 -4.970653 0.295661 1.153 
1035 795 -5.055481 0.827999 1.477 
1045 795 -5.231456 1.097493 1.624 
1055 795 -3.578723 0.203787 3.154 
1065 795 4.445364 -1.940218 1.140 
1075 795 8.638326 -4.525250 1.746 
1085 795 11.110654 -5.848247 1.545 
1095 795 9.436622 -5.122560 1.231 
1105 795 7.762589 -4.396872 1.073 
1115 795 5.338547 -2.237878 1.096 
1125 795 3.618872 -0.086938 1.051 
1135 795 2.754451 -8.175844 1.063 
1145 795 1.890029 -16.264750 1.141 
1155 795 1.959877 -19.056786 1.314 
1165 795 2.554792 -22.503827 1.418 
1175 795 3.149707 -25.950868 1.144 
1185 795 4.560316 -25.050307 1.781 
1195 795 5.970925 -24.149746 1.191 
1205 795 7.381535 -23.249185 1.570 
1215 795 8.792144 -22.348624 1.161 
1225 795 9.512594 -22.214159 1.088 
1235 795 11.428744 -21.653264 1.271 
1245 795 12.783238 -22.499202 1.433 
1255 795 14.137733 -23.345140 1.046 
1265 795 12.494324 -18.025749 1.202 
1275 795 0.000000 -0.000000 1.099 
5 785 8.134221 -3.562189 1.398 
15 785 8.627693 -6.057443 1.398 
25 785 7.763898 -5.555145 1.035 
35 785 6.900103 -5.052847 1.446 
45 785 4.443310 -18.919363 1.109 
55 785 -4.898832 -21.042067 1.179 
65 785 1.048788 -20.331642 1.042 
75 785 8.307957 -17.132671 1.155 
85 785 6.169816 -12.081235 1.010 
95 785 6.520469 -7.562564 1.632 
105 785 5.975955 -4.194783 1.003 
115 785 10.959494 -3.505876 1.269 
125 785 10.407647 0.376950 1.023 
135 785 9.855800 4.259776 1.082 
145 785 1.709429 1.553605 1.108 
155 785 -1.440013 -0.761098 1.056 
165 785 -3.473321 0.032509 1.345 
175 785 -5.088525 0.718359 2.310 
185 785 -5.946978 0.962934 2.187 
195 785 -5.613505 1.104177 5.025 
205 785 -4.956521 1.913498 2.182 
215 785 -4.325568 1.846001 1.010 
225 785 -5.204373 1.920020 3.172 
235 785 -5.537094 1.725737 3.523 
245 785 -5.431605 1.695839 3.353 
255 785 -5.157580 2.352896 1.508 
265 785 -5.827361 4.620362 1.096 
275 785 -6.497142 6.887829 1.230 
285 785 -5.206718 1.786189 1.516 
295 785 -5.042327 1.647225 13.107 
305 785 -5.059010 1.667857 20.000 
315 785 -5.235748 1.749655 15.920 
325 785 -5.434627 2.066747 3.855 
335 785 -5.300354 2.331256 1.532 
345 785 -5.042646 2.017767 1.640 
355 785 -5.179724 0.958841 1.813 
365 785 -5.004595 0.867410 1.334 
375 785 -4.844185 1.241799 1.885 
385 785 -4.804620 1.302497 1.247 
395 785 -4.765055 1.363195 1.042 
405 785 -5.114529 1.009315 1.721 
415 785 -4.964613 1.018765 4.795 
425 785 -4.814697 1.028215 20.000 
435 785 -4.686092 1.563381 3.839 
445 785 -4.515919 1.310012 1.765 
455 785 -4.309869 0.866435 2.035 
465 785 -4.137373 1.047818 2.008 
475 785 -3.936720 1.410767 1.513 
485 785 -3.844938 1.352032 2.443 
495 785 -4.065228 1.066802 3.417 
505 785 -4.171099 1.017049 2.509 
515 785 -4.178624 0.890444 2.088 
525 785 -3.770965 1.040722 2.023 
535 785 -3.535092 1.372052 1.108 
545 785 -3.612756 1.870342 1.007 
555 785 -3.925148 2.159799 1.729 
565 785 -4.027456 1.984455 1.896 
575 785 -3.985384 1.698680 2.517 
585 785 -3.832278 1.648089 5.509 
595 785 -3.872590 1.458609 2.410 
605 785 -3.810995 1.160365 38.778 
615 785 -4.508656 -0.945932 66.715 
625 785 -5.901463 -0.930178 1.499 
635 785 -7.294270 -0.914424 1.012 
645 785 -6.552559 -0.785434 1.212 
655 785 -4.744741 0.329963 2.465 
665 785 -4.110593 0.066308 1.309 
675 785 -3.759209 0.423999 1.561 
685 785 -4.197857 0.622493 1.567 
695 785 -4.401876 0.331046 1.732 
705 785 -4.798376 1.002934 1.034 
715 785 -5.229114 1.739852 1.216 
725 785 -5.495429 1.811392 62.098 
735 785 -5.243488 0.689946 1.777 
745 785 -4.554320 -0.105765 1.538 
755 785 -3.556071 -0.054499 1.218 
765 785 -3.495566 0.568387 1.362 
775 785 -4.133776 1.329491 3.084 
785 785 -4.402755 1.017078 2.814 
795 785 -5.287972 0.387943 6.293 
805 785 -5.418113 0.198729 4.493 
815 785 -4.300719 0.111575 2.855 
825 785 -4.029991 -0.165581 1.677 
835 785 -3.759262 -0.442736 1.821 
845 785 -4.792844 0.766744 2.081 
855 785 -5.177925 1.319455 1.571 
865 785 -5.487378 1.985348 1.227 
875 785 -5.567801 1.967988 2.558 
885 785 -5.648225 1.950628 2.214 
895 785 -5.191370 1.799308 1.489 
905 785 -4.888489 1.656065 2.120 
915 785 -5.741240 1.581683 1.786 
925 785 -6.784497 1.460378 2.308 
935 785 -6.933801 1.752245 1.698 
945 785 -5.974751 1.483299 2.162 
955 785 -5.794000 0.602641 2.218 
965 785 -6.249572 0.508253 2.375 
975 785 -6.092549 0.574644 1.844 
985 785 -5.061819 0.132985 2.327 
995 785 -4.803156 -0.063146 2.424 
1005 785 -5.064370 0.047327 2.244 
1015 785 -5.057181 0.251795 1.290 
1025 785 -4.473274 0.698393 1.153 
1035 785 -4.662307 1.101405 1.477 
1045 785 -4.611492 1.220271 1.624 
1055 785 -3.330350 0.379112 3.154 
1065 785 3.792509 -1.470327 1.140 
1075 785 7.786587 -3.987320 1.746 
1085 785 9.578419 -5.240529 1.545 
1095 785 9.500984 -5.662139 1.231 
1105 785 5.800952 -5.594573 1.073 
1115 785 3.537085 -3.030851 1.096 
1125 785 1.396840 -0.413446 1.051 
1135 785 1.604742 0.439187 1.063 
1145 785 0.602161 -13.313277 1.141 
1155 785 0.535590 -16.342616 1.314 
1165 785 1.337108 -21.770840 1.418 
1175 785 1.658520 -22.654098 1.144 
1185 785 6.079555 -10.282116 1.781 
1195 785 7.646600 -13.369351 1.191 
1205 785 9.213645 -16.456586 1.570 
1215 785 7.638210 -20.630726 1.161 
1225 785 8.919989 -22.275746 1.088 
1235 785 11.372782 -21.761129 1.271 
1245 785 13.968596 -20.202568 1.433 
1255 785 13.138001 -18.838462 1.046 
1265 785 14.046054 -16.803709 1.202 
1275 785 10.638908 -7.144482 1.099 
5 775 1.784475 -5.131220 1.111 
15 775 2.652219 -5.052251 1.111 
25 775 3.990170 -3.668508 1.370 
35 775 5.328121 -2.284766 1.001 
45 775 -2.457328 -13.082282 1.786 
55 775 -4.362029 -15.171863 1.092 
65 775 -0.188142 -14.350812 1.072 
75 775 5.015120 -12.132805 1.014 
85 775 7.178963 -8.427718 1.127 
95 775 6.699792 -5.045291 1.058 
105 775 6.403181 -0.787864 1.127 
115 775 9.416527 6.506856 1.071 
125 775 10.455381 7.801444 2.057 
135 775 8.994995 5.983050 1.018 
145 775 4.377959 5.920479 1.301 
155 775 1.071918 -0.118713 1.009 
165 775 -1.777296 -0.199843 1.456 
175 775 -4.668195 0.586325 1.472 
185 775 -5.506774 1.165748 1.791 
195 775 -5.108423 1.112248 1.939 
205 775 -4.593554 1.344965 1.509 
215 775 -4.273273 1.558559 1.775 
225 775 -4.877710 1.585933 5.358 
235 775 -5.416236 1.433780 5.485 
245 775 -5.337604 1.360613 2.565 
255 775 -5.096014 1.699598 1.911 
265 775 -5.525129 3.372621 2.455 
275 775 -5.757274 3.880130 1.749 
285 775 -5.190850 1.029304 2.411 
295 775 -5.075602 1.298956 101.371 
305 775 -5.177193 1.592615 20.000 
315 775 -5.357882 1.615301 6.360 
325 775 -5.670839 1.950869 3.575 
335 775 -5.462652 2.112393 2.049 
345 775 -5.462513 1.479786 1.262 
355 775 -5.422766 0.983730 1.314 
365 775 -5.322840 0.777326 1.639 
375 775 -5.144147 1.310106 2.003 
385 775 -4.766659 1.557594 1.222 
395 775 -4.784030 1.405721 1.013 
405 775 -4.885659 1.032103 1.503 
415 775 -4.734033 0.600825 2.762 
425 775 -4.618029 0.680246 36.768 
435 775 -4.726776 1.149655 1.958 
445 775 -4.683150 0.946861 1.803 
455 775 -4.375068 0.645289 2.427 
465 775 -4.408670 0.759722 2.355 
475 775 -4.359389 1.162914 3.532 
485 775 -3.895635 1.200233 1.887 
495 775 -3.876368 0.970009 2.316 
505 775 -3.824443 1.008813 1.596 
515 775 -3.927020 1.206323 2.263 
525 775 -3.974874 1.133045 2.147 
535 775 -3.650457 1.109785 1.336 
545 775 -3.571556 1.665377 1.051 
555 775 -3.702278 1.940326 2.287 
565 775 -3.865954 1.209311 1.661 
575 775 -4.053081 1.345867 1.550 
585 775 -3.984732 1.354663 2.230 
595 775 -4.109411 1.200734 3.342 
605 775 -4.068943 1.381636 6.529 
615 775 -4.832211 0.069806 6.145 
625 775 -6.127924 -0.385551 1.172 
635 775 -7.027433 -0.917508 1.940 
645 775 -6.853619 -0.775841 2.610 
655 775 -4.690027 0.048937 1.016 
665 775 -4.074096 -0.831342 1.122 
675 775 -3.900685 -0.335718 1.464 
685 775 -4.035012 0.421540 1.587 
695 775 -3.735114 -0.034323 1.429 
705 775 -4.582714 0.561447 1.175 
715 775 -4.731447 1.304313 1.295 
725 775 -5.137771 1.025966 2.198 
735 775 -4.886968 0.207561 1.917 
745 775 -4.437488 -0.604968 1.348 
755 775 -4.124482 -0.254027 1.310 
765 775 -4.355034 1.021972 2.594 
775 775 -4.543165 1.442663 5.433 
785 775 -4.479414 1.122071 2.456 
795 775 -4.995941 0.508539 3.567 
805 775 -4.839313 0.245232 2.369 
815 775 -4.268290 -0.318543 3.600 
825 775 -4.346424 -0.081227 1.402 
835 775 -4.424558 0.156090 1.531 
845 775 -5.065191 0.979967 3.861 
855 775 -5.365371 1.731702 2.696 
865 775 -5.687068 1.958387 1.230 
875 775 -6.082599 1.974216 1.893 
885 775 -5.929042 1.565216 2.317 
895 775 -5.362106 1.538909 1.373 
905 775 -4.949292 1.544151 2.802 
915 775 -5.595980 1.322298 8.686 
925 775 -6.490919 1.480151 1.780 
935 775 -6.830590 1.604413 2.815 
945 775 -6.287947 1.157902 1.951 
955 775 -5.795187 0.338720 1.590 
965 775 -6.660047 0.637858 1.704 
975 775 -6.662528 0.609183 2.107 
985 775 -5.386919 1.001930 2.389 
995 775 -5.178518 1.013139 1.063 
1005 775 -5.191807 1.253660 1.318 
1015 775 -4.740198 0.893556 1.305 
1025 775 -4.208532 1.058764 1.096 
1035 775 -4.082488 1.354975 1.931 
1045 775 -4.886027 1.257200 1.178 
1055 775 -3.941632 0.726894 1.016 
1065 775 1.607243 -0.942106 1.057 
1075 775 4.894588 -3.244378 2.152 
1085 775 8.046183 -4.632810 2.271 
1095 775 8.681262 -4.870924 2.524 
1105 775 5.253559 -4.651139 1.260 
1115 775 0.680121 -3.732496 1.737 
1125 775 -0.404499 -2.524013 1.019 
1135 775 -0.099507 -1.348565 2.170 
1145 775 0.163249 -1.662445 2.002 
1155 775 0.349800 -8.783073 1.578 
1165 775 0.734140 -6.726556 1.362 
1175 775 1.118480 -4.670040 1.105 
1185 775 4.123772 -5.975838 1.055 
1195 775 6.409509 -7.822998 1.361 
1205 775 6.408875 -16.966408 1.042 
1215 775 6.485842 -27.286533 1.014 
1225 775 7.922922 -26.299807 1.026 
1235 775 10.327712 -26.322065 1.245 
1245 775 11.823221 -17.938863 1.509 
1255 775 12.138269 -14.331783 1.041 
1265 775 7.263114 -12.383791 1.227 
1275 775 7.386869 -3.787419 1.001 
5 765 -4.565270 -6.700251 1.005 
15 765 -6.660321 -2.144830 1.005 
25 765 2.970709 -1.550177 1.130 
35 765 1.395234 -0.992110 1.222 
45 765 -2.941550 -4.424101 1.173 
55 765 -3.515840 -7.409812 1.249 
65 765 -2.786241 -7.305036 1.394 
75 765 1.948709 -7.070235 1.005 
85 765 4.359791 -4.530624 1.043 
95 765 5.413987 -1.801029 1.354 
105 765 6.830407 2.619055 1.132 
115 765 7.140978 6.666281 1.201 
125 765 7.682434 7.501557 1.901 
135 765 6.750050 6.673582 1.301 
145 765 3.714931 3.252744 1.058 
155 765 0.679812 -0.168095 1.019 
165 765 -1.332629 -0.380566 1.275 
175 765 -4.543578 0.549466 2.097 
185 765 -5.214960 0.883218 1.343 
195 765 -4.852902 1.144381 1.621 
205 765 -4.565236 1.214300 2.434 
215 765 -4.556937 1.488672 1.781 
225 765 -4.811736 1.444358 15.391 
235 765 -5.472091 1.332575 19.980 
245 765 -5.626856 1.165980 3.482 
255 765 -5.170123 1.285740 1.522 
265 765 -4.982230 1.530437 1.297 
275 765 -5.017406 0.872431 1.191 
285 765 -5.025667 1.036347 1.472 
295 765 -5.031894 1.165664 3.387 
305 765 -5.275917 1.464152 4.206 
315 765 -5.611883 1.251671 1.924 
325 765 -5.615371 1.669054 1.072 
335 765 -5.312505 1.625013 1.518 
345 765 -5.167620 1.070376 1.168 
355 765 -5.213924 0.793060 1.182 
365 765 -5.267738 0.770617 1.333 
375 765 -5.208633 1.132077 1.984 
385 765 -4.607466 1.594404 1.006 
395 765 -4.557302 1.544653 1.033 
405 765 -4.562337 1.236928 1.424 
415 765 -4.820641 0.761494 1.156 
425 765 -4.711416 0.771423 1.330 
435 765 -4.934281 1.023797 1.906 
445 765 -4.671806 1.338278 1.553 
455 765 -4.333793 0.840698 1.012 
465 765 -4.601511 0.789881 1.192 
475 765 -4.775775 1.082231 3.349 
485 765 -4.520614 1.074319 3.007 
495 765 -4.313142 0.782887 4.081 
505 765 -3.954177 1.120038 1.848 
515 765 -3.723425 1.451182 2.119 
525 765 -3.818053 1.401573 1.785 
535 765 -3.658492 1.255130 1.319 
545 765 -3.452198 1.641167 6.604 
555 765 -3.415816 1.755871 3.335 
565 765 -3.310207 1.187560 1.054 
575 765 -3.792342 1.177522 1.670 
585 765 -4.277266 0.869810 1.792 
595 765 -4.476383 0.888395 2.534 
605 765 -4.457221 1.500854 3.047 
615 765 -5.244751 1.317796 42.492 
625 765 -6.257292 -0.312035 9.086 
635 765 -6.760597 -0.920593 2.455 
645 765 -5.562813 -0.382279 1.885 
655 765 -4.602745 -0.398668 1.800 
665 765 -4.181680 -1.845126 1.495 
675 765 -4.562254 -1.231399 1.859 
685 765 -5.127967 -0.528728 2.244 
695 765 -4.782327 -0.634801 1.150 
705 765 -4.367051 0.119960 1.184 
715 765 -4.233780 0.868773 1.154 
725 765 -4.515512 0.458648 1.237 
735 765 -4.530449 -0.274823 1.887 
745 765 -4.489758 -0.809318 20.357 
755 765 -4.595012 -0.493337 7.536 
765 765 -5.013126 0.767354 4.770 
775 765 -4.842281 1.060245 2.782 
785 765 -5.032290 1.371015 1.760 
795 765 -4.991292 0.683560 2.590 
805 765 -4.954985 0.485424 5.378 
815 765 -4.720835 0.067748 2.036 
825 765 -4.599369 -0.229349 3.034 
835 765 -4.737855 0.592341 2.503 
845 765 -5.031836 1.148261 2.913 
855 765 -5.096337 1.694488 1.797 
865 765 -5.248731 1.780757 1.174 
875 765 -5.798683 1.363432 2.326 
885 765 -6.149650 1.053061 1.228 
895 765 -5.989211 0.780326 1.834 
905 765 -5.424200 0.842573 3.620 
915 765 -5.441752 0.955158 2.539 
925 765 -5.992671 0.868066 1.443 
935 765 -6.396996 0.583335 3.508 
945 765 -5.977916 0.068545 3.868 
955 765 -5.521946 -0.103292 7.231 
965 765 -6.241283 0.523509 1.693 
975 765 -6.102755 0.770186 1.814 
985 765 -5.499287 1.364579 2.160 
995 765 -4.829199 1.185101 1.051 
1005 765 -4.731433 1.348745 1.367 
1015 765 -4.346905 0.885256 1.307 
1025 765 -3.933117 0.776261 2.883 
1035 765 -4.304755 0.998623 3.614 
1045 765 -5.078370 1.344091 1.269 
1055 765 -4.848618 1.198728 1.028 
1065 765 -1.397164 0.201700 1.904 
1075 765 1.132732 -1.404512 2.087 
1085 765 4.243609 -2.812800 1.894 
1095 765 5.547868 -3.061557 1.276 
1105 765 2.527004 -3.079048 1.320 
1115 765 -1.960957 -2.406607 1.043 
1125 765 -1.619915 -1.564345 1.220 
1135 765 -1.101812 -0.487697 1.125 
1145 765 -0.555669 -0.589745 2.524 
1155 765 0.588089 -1.666689 2.214 
1165 765 0.513199 -2.483506 1.862 
1175 765 0.438309 -3.300324 1.753 
1185 765 3.941871 -3.630077 1.490 
1195 765 7.031440 -4.551481 1.292 
1205 765 6.544330 -14.742065 1.200 
1215 765 6.057219 -24.932649 1.168 
1225 765 6.925855 -30.323868 1.482 
1235 765 7.249343 -22.076769 1.032 
1245 765 12.770981 -16.366182 1.202 
1255 765 11.171570 -10.594498 1.025 
1265 765 9.716405 -8.657349 1.212 
1275 765 4.134829 -0.430357 1.070 
5 755 -13.280034 -4.577086 1.026 
15 755 -13.804151 -1.633660 1.026 
25 755 -1.064215 -1.533844 1.309 
35 755 -1.577742 -0.987893 1.526 
45 755 -1.238296 2.865785 1.052 
55 755 -2.669650 0.352240 1.443 
65 755 -3.434387 -2.601849 1.348 
75 755 -0.968318 -2.783275 1.382 
85 755 2.181198 -0.759092 1.407 
95 755 4.921600 0.727397 2.195 
105 755 7.506233 3.880825 1.106 
115 755 6.565651 3.378549 1.139 
125 755 5.026284 1.639482 1.381 
135 755 0.449935 0.170191 1.127 
145 755 0.306081 -0.051445 1.000 
155 755 0.162226 -0.273081 1.190 
165 755 -2.199055 0.296048 1.013 
175 755 -4.596991 1.112567 1.692 
185 755 -5.184697 1.258920 1.874 
195 755 -5.204786 1.244411 1.744 
205 755 -4.952430 1.217669 1.706 
215 755 -4.957015 1.472823 2.266 
225 755 -5.014313 1.519824 1.505 
235 755 -5.831470 1.256270 2.649 
245 755 -6.118083 1.055509 42.741 
255 755 -5.483210 1.089030 2.695 
265 755 -4.770414 1.137422 2.001 
275 755 -4.749116 1.044142 1.280 
285 755 -4.809357 1.329714 1.107 
295 755 -4.911669 1.528575 3.744 
305 755 -5.254016 1.854538 3.953 
315 755 -5.664745 1.227348 1.060 
325 755 -5.413282 1.056941 2.763 
335 755 -5.154580 1.230446 1.319 
345 755 -5.075231 1.282588 1.165 
355 755 -5.158173 1.080709 1.315 
365 755 -4.554323 1.044636 3.416 
375 755 -4.893386 1.218104 2.917 
385 755 -5.316183 1.975053 1.290 
395 755 -5.122437 1.889859 1.171 
405 755 -4.976712 1.548599 1.548 
415 755 -5.024202 1.113802 1.181 
425 755 -4.961607 1.079063 1.259 
435 755 -4.890670 1.278897 1.256 
445 755 -4.930401 1.495232 1.166 
455 755 -4.221466 1.246243 1.449 
465 755 -4.647922 1.049559 1.420 
475 755 -5.059110 1.119197 3.153 
485 755 -4.953118 1.027543 5.527 
495 755 -4.710203 0.903488 1.931 
505 755 -4.237947 1.384452 1.743 
515 755 -3.868829 1.549249 2.174 
525 755 -3.810233 1.236800 2.324 
535 755 -3.669257 1.157461 1.926 
545 755 -3.574457 1.696504 1.025 
555 755 -3.295832 1.770883 1.079 
565 755 -3.177099 1.253965 2.780 
575 755 -3.531603 1.009176 3.608 
585 755 -4.002675 0.651704 1.683 
595 755 -4.340411 0.577708 1.948 
605 755 -4.657254 1.178215 1.953 
615 755 -4.355388 1.151181 1.625 
625 755 -5.603018 0.735267 1.656 
635 755 -5.458623 -0.212879 2.066 
645 755 -5.303997 -0.756723 2.581 
655 755 -4.758080 -1.280627 1.689 
665 755 -4.393833 -2.176859 3.029 
675 755 -4.456029 -1.596615 3.398 
685 755 -4.811773 -0.668359 1.047 
695 755 -4.701488 -0.542487 1.004 
705 755 -4.218800 -0.054627 1.319 
715 755 -3.736112 0.433233 2.451 
725 755 -3.872402 0.017845 2.556 
735 755 -3.903040 -0.555507 3.247 
745 755 -4.022819 -0.861663 20.000 
755 755 -4.331306 -0.530966 7.272 
765 755 -4.742341 0.188816 3.303 
775 755 -4.804721 0.619733 1.829 
785 755 -4.541301 0.581676 1.571 
795 755 -5.049024 0.873912 1.025 
805 755 -5.250785 0.754800 2.162 
815 755 -5.196036 0.572105 1.222 
825 755 -4.921149 0.264344 3.910 
835 755 -5.013782 0.739222 5.454 
845 755 -4.794537 1.301059 1.695 
855 755 -5.166950 1.578745 2.027 
865 755 -5.202802 1.673832 4.895 
875 755 -5.901985 0.820019 3.671 
885 755 -6.370259 0.540907 1.525 
895 755 -5.896384 0.156570 3.094 
905 755 -5.296068 -0.198069 3.724 
915 755 -5.366678 -0.265065 1.391 
925 755 -5.091481 -0.336884 1.978 
935 755 -5.260486 -0.584547 2.536 
945 755 -5.334070 -0.574560 3.121 
955 755 -5.360961 -0.129118 4.604 
965 755 -5.606816 0.457757 1.166 
975 755 -5.289541 0.965117 1.061 
985 755 -4.347232 1.188226 3.533 
995 755 -4.212566 1.260240 4.626 
1005 755 -4.059697 0.884721 1.176 
1015 755 -3.840254 0.499761 3.053 
1025 755 -3.623931 0.540984 2.233 
1035 755 -3.917636 0.709523 3.476 
1045 755 -4.516703 1.022142 1.405 
1055 755 -4.591382 1.128002 1.157 
1065 755 -4.401571 1.345505 4.423 
1075 755 -3.433215 1.313797 1.247 
1085 755 -3.458225 5.847974 1.262 
1095 755 -3.540158 5.204871 1.937 
1105 755 -3.622090 4.561769 2.451 
1115 755 -3.805122 -1.167852 1.710 
1125 755 -1.964556 -1.144818 1.375 
1135 755 -2.424094 0.025134 1.283 
1145 755 -1.400173 0.727553 1.422 
1155 755 0.589139 0.057347 1.463 
1165 755 1.942709 -1.255688 1.233 
1175 755 1.540777 -1.248748 1.391 
1185 755 4.258215 -2.118372 1.044 
1195 755 8.026022 -2.318190 1.123 
1205 755 7.581535 -10.163918 1.141 
1215 755 7.137049 -18.009647 1.021 
1225 755 6.934634 -19.261129 1.256 
1235 755 6.732220 -20.512612 1.294 
1245 755 13.718742 -14.793501 1.020 
1255 755 12.064173 -7.294569 1.048 
1265 755 14.079715 -6.062518 1.142 
1275 755 0.882790 2.926706 1.019 
5 745 -18.295502 -0.304381 1.098 
15 745 -17.106003 -0.362637 1.098 
25 745 -5.099139 -1.517510 1.466 
35 745 -3.198193 0.885352 1.211 
45 745 -1.707465 3.433743 1.147 
55 745 -1.636029 2.751330 1.136 
65 745 -2.086188 1.132419 1.275 
75 745 -1.069494 0.784115 1.349 
85 745 1.437516 1.348713 2.394 
95 745 4.260831 2.370828 1.162 
105 745 5.738478 2.907500 1.313 
115 745 6.009276 0.211958 1.022 
125 745 2.771035 0.774929 1.141 
135 745 0.931218 0.066996 1.222 
145 745 0.924724 -0.262419 1.334 
155 745 -0.897661 -0.164573 1.736 
165 745 -2.525390 0.430540 1.030 
175 745 -4.678136 1.580250 2.016 
185 745 -5.361319 1.839686 1.256 
195 745 -5.195525 1.465462 1.237 
205 745 -5.367080 1.341851 2.925 
215 745 -5.173874 1.345736 2.756 
225 745 -5.243975 1.268109 1.925 
235 745 -5.917394 1.157419 3.340 
245 745 -5.802549 1.160151 9.927 
255 745 -5.668514 1.134772 4.006 
265 745 -4.991564 0.977055 1.733 
275 745 -4.480826 1.215853 1.691 
285 745 -4.593047 1.623082 1.367 
295 745 -5.038827 1.827523 1.233 
305 745 -5.344768 1.500886 15.615 
315 745 -5.633509 1.173223 4.398 
325 745 -5.621535 1.002646 6.204 
335 745 -5.281042 1.359863 1.450 
345 745 -5.223870 1.420288 1.172 
355 745 -5.102422 1.368357 1.104 
365 745 -4.623124 1.460256 3.284 
375 745 -4.988141 1.438342 1.842 
385 745 -5.444129 1.662568 1.258 
395 745 -5.497925 1.797214 1.254 
405 745 -5.376514 1.740500 1.746 
415 745 -5.289893 1.388676 1.415 
425 745 -5.210243 1.268745 1.461 
435 745 -5.205913 1.586478 1.058 
445 745 -5.168090 1.504905 2.159 
455 745 -4.485152 1.475109 3.037 
465 745 -4.425226 1.263781 2.068 
475 745 -4.899102 0.768974 2.075 
485 745 -4.883688 0.863687 1.931 
495 745 -4.741822 1.364962 2.151 
505 745 -4.453782 1.434221 1.852 
515 745 -4.102549 1.526669 3.028 
525 745 -3.845792 1.270195 2.689 
535 745 -3.512388 1.098177 1.926 
545 745 -3.477901 1.648375 1.082 
555 745 -3.403257 1.799483 2.338 
565 745 -3.216650 1.433154 3.373 
575 745 -3.526511 1.146887 2.651 
585 745 -4.215919 0.586859 1.439 
595 745 -4.062371 0.664085 1.153 
605 745 -3.908822 0.741311 1.033 
615 745 -3.466025 0.984566 1.503 
625 745 -3.633457 0.227774 3.203 
635 745 -4.577854 -0.575768 3.633 
645 745 -4.932865 -1.021784 1.682 
655 745 -4.753689 -1.001364 1.658 
665 745 -4.605986 -2.508592 1.728 
675 745 -4.349804 -1.961831 1.420 
685 745 -4.096619 -0.208254 1.469 
695 745 -4.506519 0.004235 1.196 
705 745 -3.968968 0.171370 1.053 
715 745 -3.410295 0.307469 2.344 
725 745 -3.495714 -0.120630 4.043 
735 745 -3.285543 -0.583541 2.180 
745 745 -3.368332 -0.737237 20.000 
755 745 -3.838516 -0.401651 6.124 
765 745 -4.209167 0.128389 3.357 
775 745 -4.226529 0.410804 1.887 
785 745 -4.461412 0.710361 1.180 
795 745 -5.054436 0.978890 4.201 
805 745 -5.533980 0.844229 6.276 
815 745 -5.662674 0.517195 4.010 
825 745 -5.654517 0.232942 20.000 
835 745 -5.317411 0.679094 20.000 
845 745 -5.176067 1.044557 1.946 
855 745 -5.474448 1.544460 1.877 
865 745 -5.367273 1.622783 4.905 
875 745 -6.034368 0.519123 1.038 
885 745 -6.293374 0.179090 1.843 
895 745 -6.004691 0.008272 1.885 
905 745 -4.606982 -0.271529 3.122 
915 745 -4.470120 -0.268389 1.073 
925 745 -4.432101 -0.150018 2.110 
935 745 -4.472101 -0.291864 2.218 
945 745 -4.697542 -0.309137 2.153 
955 745 -4.879862 0.243511 3.415 
965 745 -4.932647 0.690750 1.294 
975 745 -4.354578 1.322532 1.623 
985 745 -3.994030 1.792045 1.830 
995 745 -3.640527 1.651210 1.805 
1005 745 -3.515468 1.192154 1.021 
1015 745 -3.317394 0.821961 1.680 
1025 745 -3.028135 0.756646 1.481 
1035 745 -3.347446 0.770138 1.999 
1045 745 -3.723680 0.963314 1.168 
1055 745 -4.334146 1.057276 1.974 
1065 745 -4.005287 1.162527 18.502 
1075 745 -3.873350 1.418696 3.670 
1085 745 -3.690379 3.671849 1.084 
1095 745 -3.486935 2.726194 1.245 
1105 745 -3.599748 3.256580 1.171 
1115 745 -3.754965 -0.419481 20.000 
1125 745 -3.359487 0.801997 1.045 
1135 745 -3.035150 1.385297 7.614 
1145 745 -2.090056 1.982176 3.287 
1155 745 -0.373110 0.798347 1.597 
1165 745 1.065299 0.147336 1.253 
1175 745 1.968683 -0.059260 1.093 
1185 745 4.585838 -0.836932 1.297 
1195 745 7.442366 -2.155462 1.170 
1205 745 8.323887 -2.333122 1.189 
1215 745 7.498307 -14.648616 1.705 
1225 745 7.665345 -16.481719 1.099 
1235 745 7.832382 -18.314822 1.294 
1245 745 12.493797 -9.093223 1.022 
1255 745 10.199407 -1.849827 1.080 
1265 745 7.688733 1.693944 1.391 
1275 745 -0.671607 8.990228 1.029 
5 735 -17.848460 0.810611 1.001 
15 735 -7.714856 0.427246 1.001 
25 735 -5.286050 1.145106 1.067 
35 735 -2.857245 1.862967 1.159 
45 735 -1.404004 2.302057 1.158 
55 735 -1.169298 1.226964 1.121 
65 735 -1.372559 2.334236 1.084 
75 735 -1.777208 1.600755 1.510 
85 735 0.450510 1.969262 2.075 
95 735 1.814389 2.469673 1.015 
105 735 3.970722 1.934176 1.299 
115 735 3.015847 -0.560318 1.109 
125 735 0.515786 -0.089625 1.110 
135 735 1.189337 0.283715 1.004 
145 735 -2.174438 0.030240 1.190 
155 735 -1.957548 -0.056064 1.053 
165 735 -3.367925 0.681169 1.157 
175 735 -4.986080 1.948109 1.732 
185 735 -5.216854 1.756269 6.376 
195 735 -5.186263 1.686514 1.964 
205 735 -5.378163 1.449147 1.084 
215 735 -5.444838 1.247386 1.914 
225 735 -5.568185 1.145022 1.862 
235 735 -5.651837 1.207078 2.976 
245 735 -5.487016 1.264793 1.474 
255 735 -5.370380 1.526767 1.785 
265 735 -5.464502 1.381665 1.138 
275 735 -5.618394 1.285523 1.475 
285 735 -5.582073 1.408321 2.862 
295 735 -5.468329 1.038962 2.788 
305 735 -5.573834 1.259597 7.446 
315 735 -5.638455 1.268254 3.606 
325 735 -5.563518 1.163963 2.686 
335 735 -5.432411 1.381672 2.650 
345 735 -5.324495 1.423979 2.094 
355 735 -5.452081 1.537827 1.667 
365 735 -5.208080 1.754127 1.122 
375 735 -5.326973 1.472776 1.293 
385 735 -5.401573 1.298781 1.018 
395 735 -5.490558 1.242404 2.231 
405 735 -5.160789 1.422557 4.893 
415 735 -5.171670 1.238196 26.283 
425 735 -5.110119 1.277372 5.200 
435 735 -5.346689 1.442871 1.151 
445 735 -5.064497 1.482242 1.597 
455 735 -4.367721 1.557350 2.941 
465 735 -4.426172 1.211000 7.466 
475 735 -4.740561 0.689408 6.973 
485 735 -4.695981 0.909832 3.796 
495 735 -4.305235 1.425147 2.162 
505 735 -4.234228 1.321012 4.895 
515 735 -4.347854 0.996810 1.895 
525 735 -3.946957 1.106113 1.868 
535 735 -3.588955 1.326930 2.147 
545 735 -3.310586 2.113982 2.389 
555 735 -3.333263 1.988863 5.614 
565 735 -3.783247 1.365393 1.234 
575 735 -3.980311 0.592274 2.424 
585 735 -4.018949 0.599216 1.890 
595 735 -4.085573 0.555703 1.911 
605 735 -4.152198 0.512190 1.233 
615 735 -3.733337 0.751178 1.128 
625 735 -3.722802 0.183136 3.417 
635 735 -4.425635 -0.604498 1.886 
645 735 -4.708628 -0.800148 2.551 
655 735 -4.749298 -0.722101 2.015 
665 735 -4.719250 -0.572081 3.865 
675 735 -4.376011 -0.027781 4.285 
685 735 -4.208194 0.451057 3.942 
695 735 -4.261070 0.471793 1.176 
705 735 -3.837154 0.426592 1.382 
715 735 -3.447533 0.401018 1.059 
725 735 -3.397493 -0.139403 2.233 
735 735 -3.215088 -0.656438 2.939 
745 735 -3.350779 -0.611158 1.267 
755 735 -3.616671 -0.131236 2.886 
765 735 -3.953486 0.379617 3.191 
775 735 -4.121334 0.784667 3.254 
785 735 -4.386661 0.830974 1.006 
795 735 -5.085346 0.910788 5.539 
805 735 -5.574641 0.523075 20.000 
815 735 -5.767377 0.129587 20.029 
825 735 -6.051942 0.106964 2.898 
835 735 -6.060575 0.529898 1.778 
845 735 -5.502482 1.027502 1.481 
855 735 -5.476950 1.412624 2.435 
865 735 -5.403392 1.528062 1.593 
875 735 -5.970961 0.461023 1.685 
885 735 -6.479906 0.284705 1.923 
895 735 -5.648344 0.448594 2.391 
905 735 -4.603970 0.369535 1.434 
915 735 -4.433722 0.188316 1.063 
925 735 -4.603484 0.478001 2.050 
935 735 -4.474223 0.489676 2.355 
945 735 -4.578084 0.413356 4.592 
955 735 -4.579394 0.759608 1.644 
965 735 -3.965407 0.856435 2.138 
975 735 -3.889984 1.608550 2.837 
985 735 -3.763360 1.991236 2.487 
995 735 -3.476871 1.975185 1.827 
1005 735 -3.361085 1.310164 2.589 
1015 735 -3.027714 0.749415 1.825 