TITLE = "B00145"
VARIABLES = "x", "y", "u", "v", "sn"
ZONE T="Frame 0", I=128, J=80
5 795 -1.944849 17.482594 1.446 
15 795 0.892199 7.512793 1.446 
25 795 3.729247 -2.457008 1.242 
35 795 3.893961 -4.025031 1.309 
45 795 4.058675 -5.593053 1.032 
55 795 4.223389 -7.161075 1.050 
65 795 3.739107 -7.174326 1.392 
75 795 1.703597 -6.766433 1.318 
85 795 -3.652567 -11.302263 1.480 
95 795 -3.764154 -11.665151 2.287 
105 795 -3.875742 -12.028039 1.403 
115 795 -0.107895 -1.889410 1.021 
125 795 0.750259 -0.978182 1.012 
135 795 -0.816332 0.025005 1.186 
145 795 -2.382922 1.028192 1.537 
155 795 -3.232550 1.623306 1.563 
165 795 -2.856555 2.113342 1.039 
175 795 -2.895244 1.998644 1.039 
185 795 -3.077449 1.977801 1.318 
195 795 -3.259654 1.956958 2.207 
205 795 -3.311323 1.976741 3.788 
215 795 -3.397483 1.539461 6.147 
225 795 -3.510760 1.237363 2.387 
235 795 -3.431505 2.109273 2.172 
245 795 -3.584381 2.085538 3.063 
255 795 -3.737256 2.061802 2.366 
265 795 -3.958680 1.131250 1.647 
275 795 -4.538647 0.776297 1.721 
285 795 -5.351771 1.604186 1.620 
295 795 -5.439106 1.403042 1.633 
305 795 -5.526440 1.201897 1.728 
315 795 -4.989738 0.329627 1.196 
325 795 -4.201384 -0.464052 1.327 
335 795 -3.870321 -0.440870 1.932 
345 795 -3.681086 0.365069 1.777 
355 795 -2.780700 0.820269 1.688 
365 795 -2.847875 1.404577 2.575 
375 795 -3.079202 1.850402 4.006 
385 795 -2.869623 1.489303 1.059 
395 795 -2.660044 1.128205 1.145 
405 795 -2.930645 1.156988 1.092 
415 795 -3.169468 0.706684 2.136 
425 795 -3.107309 0.667398 2.726 
435 795 -2.766497 1.031230 1.341 
445 795 -1.174154 2.464822 1.271 
455 795 -1.555255 2.042006 1.212 
465 795 -1.936357 1.619191 1.326 
475 795 -2.608506 1.153311 1.862 
485 795 -2.804665 0.866957 1.626 
495 795 -2.476217 0.894493 1.811 
505 795 -2.666264 1.426497 1.413 
515 795 -3.335110 2.351160 4.469 
525 795 -4.118268 2.230123 3.264 
535 795 -4.672312 1.517521 4.215 
545 795 -4.666218 1.259664 2.519 
555 795 -4.289919 1.665380 2.400 
565 795 -3.956681 2.511939 2.364 
575 795 -3.696891 2.640287 1.609 
585 795 -2.246382 2.658298 2.328 
595 795 -0.795873 2.676308 2.209 
605 795 0.016910 2.762734 1.773 
615 795 0.829693 2.849159 1.174 
625 795 1.642476 2.935584 2.990 
635 795 -3.115137 1.693878 2.161 
645 795 -3.465784 1.138838 3.645 
655 795 -3.620737 1.207181 2.148 
665 795 -3.509415 1.731855 2.020 
675 795 -3.444043 2.147140 4.743 
685 795 -3.340408 2.448162 5.809 
695 795 -3.001224 2.453218 13.480 
705 795 -2.662040 2.458273 6.777 
715 795 -2.761911 0.774819 2.926 
725 795 -2.841699 -0.369755 8.450 
735 795 -2.960513 -0.807096 5.902 
745 795 -2.836571 -0.902069 1.679 
755 795 -2.502777 -1.137588 9.890 
765 795 -1.710344 -1.723718 1.445 
775 795 -0.917910 -2.309848 1.350 
785 795 -1.103578 -1.748042 1.954 
795 795 -1.289245 -1.186235 1.051 
805 795 -1.474913 -0.624429 2.462 
815 795 -1.660580 -0.062623 2.328 
825 795 -1.846248 0.499184 1.480 
835 795 -2.479570 0.148953 1.004 
845 795 -3.112892 -0.201278 1.185 
855 795 -3.746214 -0.551509 2.308 
865 795 -4.733051 -0.834911 2.577 
875 795 -4.787002 -1.065883 2.103 
885 795 -4.840952 -1.296855 2.486 
895 795 -4.869632 -1.552751 1.202 
905 795 -5.031112 -1.548467 1.236 
915 795 -5.567855 -1.817262 1.151 
925 795 -10.689039 -3.787059 1.508 
935 795 -9.744319 -3.489967 1.251 
945 795 -8.799600 -3.192875 1.062 
955 795 -6.958372 -2.960725 1.368 
965 795 -5.117145 -2.728575 2.289 
975 795 -4.647981 -3.154880 1.468 
985 795 -4.335696 -2.995738 1.479 
995 795 -4.887381 -2.668502 1.611 
1005 795 -5.063928 -2.360651 1.882 
1015 795 -5.190418 -2.192666 1.892 
1025 795 -5.026321 -2.653976 1.289 
1035 795 -7.375716 -4.100198 1.626 
1045 795 -7.392081 -4.215398 1.072 
1055 795 -7.408446 -4.330599 1.807 
1065 795 -6.655593 -3.140397 1.122 
1075 795 -6.083637 -2.916418 1.389 
1085 795 -5.511681 -2.692438 1.064 
1095 795 -4.939725 -2.468459 1.218 
1105 795 -4.712141 -4.298004 1.126 
1115 795 -3.683581 -5.482754 1.854 
1125 795 -1.366782 -5.139972 1.153 
1135 795 1.044263 -3.946161 1.048 
1145 795 0.776050 -4.031901 2.036 
1155 795 0.507838 -4.117641 1.171 
1165 795 0.512163 -5.027201 1.311 
1175 795 0.516489 -5.936761 1.405 
1185 795 -3.063486 -11.150889 1.070 
1195 795 -6.643462 -16.365016 1.202 
1205 795 -5.036448 -11.317955 1.019 
1215 795 -2.720744 -7.659200 1.248 
1225 795 -0.405039 -4.000445 1.018 
1235 795 3.906746 -1.826028 1.157 
1245 795 0.827931 9.196156 1.314 
1255 795 6.199949 12.266514 1.032 
1265 795 11.571966 15.336872 1.185 
1275 795 0.000000 -0.000000 1.121 
5 785 -0.425903 7.705423 1.446 
15 785 1.549479 -1.385793 1.446 
25 785 5.996983 -9.811281 1.242 
35 785 5.012013 -11.871300 1.309 
45 785 5.423758 -11.094027 1.032 
55 785 6.605074 -10.272270 1.050 
65 785 5.290683 -9.024400 1.392 
75 785 2.172366 -7.756409 1.318 
85 785 -3.724650 -11.083931 1.480 
95 785 -3.647885 -11.156356 2.287 
105 785 -1.857929 -5.921142 1.403 
115 785 0.027406 -0.062161 1.021 
125 785 0.868995 0.730099 1.012 
135 785 -0.714775 0.678086 1.186 
145 785 -4.096859 1.763766 1.537 
155 785 -3.175126 2.310304 1.563 
165 785 -3.214785 2.512389 1.039 
175 785 -2.687481 2.198980 1.039 
185 785 -2.987662 1.842490 1.318 
195 785 -3.181043 1.985272 2.207 
205 785 -3.286208 1.970507 3.788 
215 785 -3.388774 1.616996 6.147 
225 785 -3.470092 1.310973 2.387 
235 785 -3.311740 2.084785 2.172 
245 785 -3.300683 2.352421 3.063 
255 785 -3.457770 1.898424 2.366 
265 785 -3.707119 1.166999 1.647 
275 785 -4.161177 0.915400 1.721 
285 785 -4.821198 1.812833 1.620 
295 785 -5.297246 1.993370 1.633 
305 785 -5.215546 1.467777 1.728 
315 785 -4.651949 0.612583 1.196 
325 785 -3.782208 -0.045545 1.327 
335 785 -3.400203 -0.036114 1.932 
345 785 -3.169818 0.633633 1.777 
355 785 -2.264068 1.086352 1.688 
365 785 -2.350375 1.561565 2.575 
375 785 -2.683906 1.921055 4.006 
385 785 -2.678394 1.895118 1.059 
395 785 -2.456184 1.266758 1.145 
405 785 -2.772410 1.378913 1.092 
415 785 -3.033799 0.963172 2.136 
425 785 -3.116259 0.814704 2.726 
435 785 -2.958552 0.970658 1.341 
445 785 -1.918441 1.923101 1.271 
455 785 -2.063742 1.785856 1.212 
465 785 -2.263326 1.525498 1.326 
475 785 -2.786854 1.152754 1.862 
485 785 -2.951136 0.860348 1.626 
495 785 -2.644971 0.867916 1.811 
505 785 -2.808450 1.384329 1.413 
515 785 -3.342321 2.373083 4.469 
525 785 -4.042154 2.315969 3.264 
535 785 -4.537945 1.656958 4.215 
545 785 -4.512341 1.472255 2.519 
555 785 -4.169579 1.856982 2.400 
565 785 -3.877989 2.646067 2.364 
575 785 -3.692542 2.723475 1.609 
585 785 -4.067528 2.295488 2.328 
595 785 -2.268781 2.589827 2.209 
605 785 0.713266 2.898894 1.773 
615 785 3.695312 3.207960 1.174 
625 785 0.152255 2.621059 2.990 
635 785 -3.029127 1.685949 2.161 
645 785 -3.478652 1.186911 3.645 
655 785 -3.497164 1.227444 2.148 
665 785 -3.460655 1.679010 2.020 
675 785 -3.337723 1.832238 4.743 
685 785 -3.391725 2.471242 5.809 
695 785 -3.024561 2.446824 13.480 
705 785 -2.657397 2.422407 6.777 
715 785 -2.700386 0.856698 2.926 
725 785 -2.665937 -0.153001 8.450 
735 785 -2.761227 -0.705425 5.902 
745 785 -2.687224 -0.912948 1.679 
755 785 -2.393493 -1.232815 9.890 
765 785 -2.711585 -1.412475 1.445 
775 785 -2.460590 -2.012143 1.350 
785 785 -1.138771 -3.066076 1.954 
795 785 1.893104 -5.787020 1.051 
805 785 1.558707 -5.911782 2.462 
815 785 -0.172980 -4.374320 2.328 
825 785 -2.428453 0.198119 1.480 
835 785 -2.760480 -0.443701 1.004 
845 785 -2.803661 -0.642714 1.185 
855 785 -3.705884 -0.958762 2.308 
865 785 -4.591234 -1.207213 2.577 
875 785 -4.735846 -1.022571 2.103 
885 785 -4.756801 -1.346946 2.486 
895 785 -4.759883 -1.472858 1.202 
905 785 -4.608008 -1.371931 1.236 
915 785 -5.399793 -1.588116 1.151 
925 785 -8.160908 -2.942702 1.508 
935 785 -10.026593 -3.786397 1.251 
945 785 -6.980935 -2.517277 1.062 
955 785 -5.359855 -2.123062 1.368 
965 785 -4.669236 -2.591147 2.289 
975 785 -4.438410 -3.081895 1.468 
985 785 -4.133748 -3.015848 1.479 
995 785 -4.717749 -2.705651 1.611 
1005 785 -4.766392 -2.384535 1.882 
1015 785 -4.955160 -2.418370 1.892 
1025 785 -5.049598 -2.661820 1.289 
1035 785 -7.006711 -3.882399 1.626 
1045 785 -7.599427 -4.277538 1.072 
1055 785 -7.347123 -4.256566 1.807 
1065 785 -6.399219 -3.223864 1.122 
1075 785 -7.919172 -2.628333 1.389 
1085 785 -7.204420 -2.272376 1.064 
1095 785 -4.798968 -2.557820 1.218 
1105 785 -5.195746 -4.189913 1.126 
1115 785 -4.214281 -4.967921 1.854 
1125 785 -3.178734 -5.073276 1.153 
1135 785 0.498212 -3.083098 1.048 
1145 785 0.629154 -2.925907 2.036 
1155 785 0.760096 -2.768716 1.171 
1165 785 0.466544 -3.559663 1.311 
1175 785 0.072051 -3.787612 1.405 
1185 785 -2.071088 -6.556113 1.070 
1195 785 -4.805989 -9.329998 1.202 
1205 785 -7.950565 -5.502635 1.019 
1215 785 -4.750918 -3.062391 1.248 
1225 785 -1.551270 -0.622147 1.018 
1235 785 2.642671 0.378186 1.157 
1245 785 7.363135 8.941873 1.314 
1255 785 9.558953 13.319947 1.032 
1265 785 11.754771 17.698021 1.185 
1275 785 0.000000 -0.000000 1.121 
5 775 1.581911 -12.811830 1.796 
15 775 2.307266 -13.387068 1.796 
25 775 3.873992 -14.143056 1.072 
35 775 5.358073 -13.622106 1.109 
45 775 7.287020 -11.821011 1.129 
55 775 6.717720 -10.183028 1.044 
65 775 4.415256 -8.919987 1.049 
75 775 1.075700 -7.467642 1.047 
85 775 -2.666610 -9.021199 1.144 
95 775 -2.111922 -6.434675 1.250 
105 775 -1.974829 -5.065781 1.508 
115 775 -0.417150 -0.222117 1.863 
125 775 0.190262 1.281453 1.344 
135 775 0.563496 3.496333 1.188 
145 775 -2.730977 2.371581 1.315 
155 775 -3.117702 2.997302 1.374 
165 775 -2.533199 3.058218 1.918 
175 775 -2.480684 2.322716 1.791 
185 775 -3.002415 2.017720 1.616 
195 775 -3.143713 1.861029 6.228 
205 775 -3.226073 1.800235 5.625 
215 775 -3.347567 1.574668 2.411 
225 775 -3.243824 1.659611 1.134 
235 775 -2.952519 1.972902 1.657 
245 775 -2.991191 1.824995 2.740 
255 775 -3.201505 1.307632 2.157 
265 775 -2.722059 1.017056 1.782 
275 775 -3.185061 1.337195 3.390 
285 775 -3.663565 2.064038 1.282 
295 775 -4.283578 2.226724 1.254 
305 775 -4.394820 1.794013 1.293 
315 775 -3.878170 1.329056 1.324 
325 775 -3.110231 0.582878 1.060 
335 775 -2.626397 0.411377 1.465 
345 775 -2.258508 0.862613 1.711 
355 775 -1.547494 1.185307 1.646 
365 775 -1.520027 1.378868 2.126 
375 775 -1.897310 1.703445 1.720 
385 775 -2.004206 1.456051 1.711 
395 775 -2.220219 1.367476 1.087 
405 775 -2.435241 1.860492 1.137 
415 775 -2.610149 2.239779 2.588 
425 775 -2.769939 1.388411 2.885 
435 775 -2.713616 1.340126 2.008 
445 775 -2.662729 1.381379 1.817 
455 775 -2.753747 1.367248 1.508 
465 775 -2.767878 1.406476 1.437 
475 775 -3.063116 1.078868 1.337 
485 775 -3.322261 0.654360 1.052 
495 775 -3.339526 0.564360 1.126 
505 775 -2.911722 1.326725 1.071 
515 775 -3.294621 2.063168 1.366 
525 775 -3.850560 2.295679 1.063 
535 775 -4.292449 2.163144 1.142 
545 775 -4.434872 1.991851 3.244 
555 775 -4.209227 2.114876 1.633 
565 775 -4.038301 2.593220 1.944 
575 775 -3.842824 2.810349 2.174 
585 775 -4.456294 2.507513 2.449 
595 775 -3.338901 2.410038 1.874 
605 775 -1.372123 2.247095 1.311 
615 775 -1.760241 2.383013 1.029 
625 775 -3.841423 2.177684 1.590 
635 775 -3.710463 1.759012 1.939 
645 775 -3.710288 0.989779 3.079 
655 775 -3.532872 0.979572 7.936 
665 775 -3.304461 1.324601 4.228 
675 775 -3.698711 1.848817 1.871 
685 775 -3.918402 2.167687 1.623 
695 775 -3.745671 2.460404 2.900 
705 775 -3.139091 2.354088 2.252 
715 775 -2.661496 1.179073 2.176 
725 775 -2.805087 0.254213 2.482 
735 775 -2.821775 -0.285446 1.818 
745 775 -2.861177 -0.812097 1.092 
755 775 -2.474857 -1.167924 2.269 
765 775 -2.958991 -1.233337 1.848 
775 775 -3.317168 -1.495076 1.456 
785 775 -2.978163 -2.250197 1.310 
795 775 -3.455514 -2.473107 1.132 
805 775 -4.217872 -1.622290 1.567 
815 775 -2.143640 -2.800193 1.758 
825 775 -3.920206 -1.164873 2.210 
835 775 -3.480347 -1.295622 2.799 
845 775 -2.852438 -1.309332 1.043 
855 775 -3.564072 -1.508505 1.414 
865 775 -4.298065 -1.689330 1.246 
875 775 -4.192731 -1.180917 3.105 
885 775 -4.574339 -1.213782 1.777 
895 775 -4.677766 -1.377395 1.659 
905 775 -4.436590 -1.185629 1.652 
915 775 -4.994179 -1.340398 2.710 
925 775 -5.632776 -2.098346 2.037 
935 775 -5.667920 -2.331248 1.673 
945 775 -5.162270 -1.841680 1.044 
955 775 -4.793658 -1.905837 1.142 
965 775 -4.160945 -2.754918 1.270 
975 775 -3.921688 -2.904313 2.311 
985 775 -4.112686 -2.875554 2.593 
995 775 -4.646905 -2.691772 1.872 
1005 775 -4.682876 -2.716845 9.987 
1015 775 -4.719901 -2.644075 20.000 
1025 775 -5.317469 -2.659156 12.002 
1035 775 -6.546324 -3.274936 2.256 
1045 775 -6.938928 -3.701290 1.773 
1055 775 -7.331531 -4.127644 1.269 
1065 775 -6.231045 -3.604660 1.289 
1075 775 -6.802227 -2.827513 1.235 
1085 775 -6.436707 -2.547180 1.061 
1095 775 -5.736454 -2.627530 1.491 
1105 775 -7.631726 -3.861743 1.572 
1115 775 -6.202946 -4.224552 1.134 
1125 775 -3.999428 -4.023093 1.067 
1135 775 -0.729925 -2.268853 1.019 
1145 775 1.592921 -1.134497 1.409 
1155 775 1.862479 -1.003410 1.546 
1165 775 1.217108 -1.351373 1.689 
1175 775 0.096004 -1.286923 1.000 
1185 775 0.358148 0.484289 1.066 
1195 775 -2.968516 -2.294980 1.570 
1205 775 -5.385902 2.273832 1.014 
1215 775 -3.610081 1.317126 1.059 
1225 775 -1.834260 0.360420 1.130 
1235 775 1.881124 2.877962 1.129 
1245 775 4.153103 4.971917 1.157 
1255 775 6.231098 7.388783 1.968 
1265 775 2.622680 5.572118 1.339 
1275 775 2.485273 4.726734 1.421 
5 765 2.888337 -10.702563 1.087 
15 765 3.354627 -12.389654 1.087 
25 765 3.410359 -12.034663 1.403 
35 765 5.109907 -8.453056 1.109 
45 765 6.250737 -8.966339 1.125 
55 765 6.830366 -10.093786 1.117 
65 765 2.169497 -7.020763 1.067 
75 765 -1.349221 -6.018594 1.158 
85 765 -2.559305 -6.851590 1.004 
95 765 -2.966485 -5.951248 1.705 
105 765 -2.091728 -4.210420 1.439 
115 765 -0.861706 -0.382074 1.067 
125 765 -0.369619 1.222185 1.378 
135 765 0.122468 2.826444 1.118 
145 765 -1.417261 2.204738 1.326 
155 765 -1.997585 3.225948 1.068 
165 765 -2.023017 3.238215 3.681 
175 765 -2.112248 2.614127 4.905 
185 765 -2.584304 2.035619 5.931 
195 765 -2.931989 1.745658 4.455 
205 765 -3.154132 1.648541 7.615 
215 765 -3.401741 1.579767 1.214 
225 765 -3.247110 1.608143 1.119 
235 765 -2.933890 2.370637 1.284 
245 765 -2.982765 1.512953 1.408 
255 765 -3.322886 1.232835 3.333 
265 765 -2.923615 1.252701 1.467 
275 765 -2.208946 1.758991 1.590 
285 765 -2.707055 2.589070 1.079 
295 765 -2.920226 2.896598 1.059 
305 765 -3.284818 1.895914 2.291 
315 765 -3.131766 1.511092 2.319 
325 765 -2.349808 1.218741 2.464 
335 765 -2.084550 1.079009 3.614 
345 765 -1.544142 1.262973 1.418 
355 765 -0.902342 1.495411 2.285 
365 765 -1.138555 1.322402 14.699 
375 765 -1.580585 1.213566 3.673 
385 765 -1.804436 1.232050 2.956 
395 765 -2.113894 1.473199 1.796 
405 765 -2.357601 1.767729 2.100 
415 765 -2.561287 1.836860 2.181 
425 765 -2.777379 1.488109 2.158 
435 765 -2.961586 1.325990 1.430 
445 765 -3.072264 1.334386 1.168 
455 765 -3.180524 1.446009 4.008 
465 765 -3.198549 1.573872 3.740 
475 765 -3.099106 1.205492 2.454 
485 765 -3.585912 0.507683 1.096 
495 765 -3.340470 0.453836 1.095 
505 765 -3.147347 1.058942 1.067 
515 765 -3.125226 1.828436 2.984 
525 765 -3.530230 2.231494 3.446 
535 765 -3.952758 2.223290 2.882 
545 765 -4.180988 2.515600 2.795 
555 765 -4.248030 2.418896 2.649 
565 765 -4.641690 2.843125 3.123 
575 765 -4.746882 2.737070 3.168 
585 765 -4.779319 2.516045 5.810 
595 765 -4.418043 2.226838 3.387 
605 765 -3.534438 1.921268 1.556 
615 765 -3.624525 1.834508 1.050 
625 765 -4.145812 1.551942 1.269 
635 765 -4.090682 1.497149 2.188 
645 765 -3.771284 1.444840 2.858 
655 765 -3.182454 1.134363 2.382 
665 765 -3.292888 1.328151 23.782 
675 765 -3.899339 1.743762 2.809 
685 765 -4.392326 2.020350 1.574 
695 765 -4.391617 2.238390 2.044 
705 765 -4.072989 1.929992 1.078 
715 765 -3.574082 1.312179 1.412 
725 765 -3.211849 0.662338 1.001 
735 765 -3.094698 -0.085604 1.756 
745 765 -3.040701 -0.875519 1.058 
755 765 -2.537509 -1.205621 1.937 
765 765 -2.556673 -1.167464 2.193 
775 765 -2.833961 -1.034183 2.411 
785 765 -3.532780 -1.730105 1.052 
795 765 -3.657009 -1.971939 1.521 
805 765 -3.540733 -1.513990 1.135 
815 765 -4.114300 -1.226066 3.654 
825 765 -3.874508 -1.641160 3.103 
835 765 -3.427404 -1.545172 4.163 
845 765 -2.973806 -1.095528 1.007 
855 765 -3.222108 -1.075594 10.320 
865 765 -3.180797 -1.608792 1.971 
875 765 -3.747425 -1.701040 18.090 
885 765 -4.472443 -1.335809 1.833 
895 765 -4.332642 -1.386914 3.400 
905 765 -4.238958 -1.287093 4.643 
915 765 -4.183993 -1.324642 1.861 
925 765 -4.278504 -1.940869 4.430 
935 765 -4.417174 -2.156146 1.985 
945 765 -4.443863 -1.705199 5.965 
955 765 -4.409247 -1.764174 4.394 
965 765 -4.399728 -2.355672 2.258 
975 765 -4.094318 -2.760072 1.382 
985 765 -4.226048 -2.812856 2.046 
995 765 -4.473750 -2.772786 1.486 
1005 765 -4.648264 -2.753480 4.570 
1015 765 -4.768267 -2.640274 25.677 
1025 765 -5.370460 -2.523410 13.207 
1035 765 -6.107951 -2.557669 1.632 
1045 765 -6.608278 -3.074284 1.008 
1055 765 -7.108606 -3.590899 1.065 
1065 765 -6.079469 -3.587137 1.170 
1075 765 -5.685283 -3.026693 1.209 
1085 765 -5.668993 -2.821985 1.059 
1095 765 -6.673939 -2.697240 1.086 
1105 765 -7.244349 -2.917495 1.039 
1115 765 -6.698761 -3.522700 1.322 
1125 765 -4.968515 -3.099471 1.497 
1135 765 -2.053762 -1.693586 1.267 
1145 765 0.990670 0.146094 1.218 
1155 765 1.306353 0.398426 1.048 
1165 765 1.622035 0.650759 1.138 
1175 765 0.361449 0.985186 1.387 
1185 765 0.311756 2.305826 2.446 
1195 765 -0.163223 4.399392 1.163 
1205 765 -2.360684 4.717865 1.453 
1215 765 -1.711497 3.106008 1.034 
1225 765 -1.062310 1.494151 1.002 
1235 765 -0.044922 -2.149311 1.149 
1245 765 0.972466 -5.792773 1.051 
1255 765 -1.729298 1.805137 1.161 
1265 765 -0.611479 2.001243 1.227 
1275 765 0.165290 2.253422 1.293 
5 755 2.626335 -2.077008 1.009 
15 755 2.952235 -3.034586 1.009 
25 755 3.129308 -3.565731 1.886 
35 755 3.715870 -2.403016 1.303 
45 755 4.113678 -3.990804 1.081 
55 755 4.205789 -4.786743 1.031 
65 755 1.321403 -4.357260 1.212 
75 755 -2.665761 -4.066984 1.226 
85 755 -3.462295 -4.547323 1.428 
95 755 -2.746086 -5.044882 1.086 
105 755 -3.824364 -3.745585 2.050 
115 755 -3.675202 -0.855077 1.116 
125 755 -0.662016 2.399980 1.363 
135 755 -0.394667 2.390172 1.026 
145 755 -1.275021 3.445783 1.901 
155 755 -1.347838 3.853025 22.500 
165 755 -1.608579 3.816351 26.030 
175 755 -1.889130 2.948547 5.971 
185 755 -2.374510 2.159068 3.767 
195 755 -2.704696 1.687718 3.576 
205 755 -3.015250 1.542364 5.189 
215 755 -3.429413 1.583758 1.771 
225 755 -3.250396 1.556676 1.819 
235 755 -3.173756 1.869314 1.467 
245 755 -3.097116 2.181952 2.369 
255 755 -3.121717 1.054462 1.968 
265 755 -3.218220 1.481814 2.666 
275 755 -2.626078 2.568121 1.183 
285 755 -2.286595 3.337723 1.011 
295 755 -2.609480 3.193396 1.779 
305 755 -2.895138 2.215344 2.708 
315 755 -2.164308 1.748068 2.976 
325 755 -1.464048 1.511685 3.165 
335 755 -1.383884 1.317404 1.679 
345 755 -0.988078 1.273991 1.263 
355 755 -0.414681 1.330429 1.368 
365 755 -1.113942 0.903689 5.744 
375 755 -1.597783 0.910149 2.820 
385 755 -1.774614 0.937709 3.863 
395 755 -2.236818 1.360425 1.337 
405 755 -2.407378 1.770165 2.884 
415 755 -2.586463 1.774384 1.974 
425 755 -2.963011 1.396094 1.401 
435 755 -3.250833 1.178615 1.492 
445 755 -3.005948 1.102891 2.326 
455 755 -3.101519 1.349547 1.518 
465 755 -3.182865 1.628385 1.282 
475 755 -3.183399 1.493320 1.063 
485 755 -2.817654 0.880262 2.048 
495 755 -3.255052 0.883285 2.253 
505 755 -3.100319 1.425479 1.793 
515 755 -2.983976 1.904761 2.198 
525 755 -3.249063 2.180123 5.185 
535 755 -3.600887 2.200192 1.375 
545 755 -4.015237 2.022991 2.442 
555 755 -4.369533 2.307955 1.968 
565 755 -4.872962 2.963586 2.069 
575 755 -4.576930 3.046099 4.311 
585 755 -4.561837 2.767323 6.907 
595 755 -4.906819 2.123049 2.462 
605 755 -4.505552 2.170251 4.604 
615 755 -4.407388 1.864190 1.698 
625 755 -4.324919 1.225929 1.230 
635 755 -4.470900 1.235286 2.617 
645 755 -3.978939 1.610543 3.719 
655 755 -3.516907 1.459786 1.874 
665 755 -3.380549 1.395276 4.018 
675 755 -4.092831 1.738174 3.132 
685 755 -4.707471 1.900875 4.039 
695 755 -4.809995 2.006900 1.915 
705 755 -4.473681 1.804112 1.238 
715 755 -3.843698 1.313413 1.206 
725 755 -3.418233 0.723877 1.764 
735 755 -3.193047 0.017269 1.509 
745 755 -2.957536 -0.737559 5.095 
755 755 -2.616400 -1.239251 9.750 
765 755 -2.196917 -1.220987 6.778 
775 755 -2.412863 -1.218671 2.135 
785 755 -2.896931 -2.082979 1.464 
795 755 -3.035439 -1.606511 1.112 
805 755 -3.038699 -0.881628 1.343 
815 755 -3.262081 -0.878514 1.705 
825 755 -3.005317 -1.382985 1.157 
835 755 -3.204977 -1.553263 1.396 
845 755 -2.910501 -1.082952 1.102 
855 755 -2.994455 -1.068218 2.445 
865 755 -2.957773 -1.608348 3.160 
875 755 -3.346574 -1.612106 24.036 
885 755 -3.779600 -1.190403 4.048 
895 755 -3.378670 -1.308882 1.037 
905 755 -3.383287 -1.400938 2.384 
915 755 -3.619749 -1.495633 1.536 
925 755 -3.786321 -1.903352 1.645 
935 755 -3.990855 -2.115618 3.773 
945 755 -4.326636 -1.886005 1.669 
955 755 -4.595784 -1.841582 6.826 
965 755 -4.580619 -2.173544 1.095 
975 755 -4.266949 -2.615831 1.215 
985 755 -4.432107 -2.911018 1.855 
995 755 -4.620356 -3.011045 1.618 
1005 755 -4.687320 -2.822360 1.921 
1015 755 -4.934478 -2.651821 6.360 
1025 755 -5.470652 -2.471063 2.728 
1035 755 -6.979324 -2.469398 4.348 
1045 755 -6.838554 -2.600995 3.061 
1055 755 -6.697784 -2.732591 1.746 
1065 755 -5.580301 -2.528767 1.200 
1075 755 -5.361152 -2.433305 1.323 
1085 755 -5.609776 -2.589332 1.328 
1095 755 -6.027251 -2.680430 1.042 
1105 755 -6.338335 -3.056716 1.474 
1115 755 -6.005730 -3.396191 1.055 
1125 755 -5.244302 -2.481288 1.024 
1135 755 -3.479812 -1.294490 1.139 
1145 755 -0.573773 0.626845 1.516 
1155 755 0.481631 1.199676 1.092 
1165 755 1.537035 1.772506 1.220 
1175 755 0.958347 3.058022 1.442 
1185 755 0.265364 4.127363 1.352 
1195 755 -0.728281 4.839811 1.552 
1205 755 -1.533144 4.981366 1.121 
1215 755 -0.395297 4.181489 3.503 
1225 755 0.322256 1.634611 1.653 
1235 755 0.649467 -1.121568 1.125 
1245 755 -0.355096 -2.363958 1.039 
1255 755 -1.514628 1.297197 1.014 
1265 755 -1.036069 0.508256 1.018 
1275 755 -0.214293 1.448172 1.002 
5 745 1.952111 6.718871 1.104 
15 745 1.932648 6.050593 1.104 
25 745 2.848257 4.903201 1.905 
35 745 2.337361 2.963336 1.385 
45 745 2.533015 0.078065 1.117 
55 745 3.292318 -1.270776 1.091 
65 745 -1.881922 0.321549 1.360 
75 745 -4.930207 -2.389318 1.355 
85 745 -5.163165 -2.328399 1.007 
95 745 -2.975026 -3.291139 1.035 
105 745 -4.567352 -2.404641 1.453 
115 745 -3.824596 1.123099 1.212 
125 745 -2.913950 3.447540 1.036 
135 745 -1.479810 4.284667 1.215 
145 745 -1.132781 4.686829 1.089 
155 745 -1.095367 4.777105 8.250 
165 745 -1.238239 4.433198 9.459 
175 745 -1.636383 3.226362 2.320 
185 745 -2.058780 2.144067 1.106 
195 745 -2.336047 1.518581 1.114 
205 745 -2.689000 1.658241 1.618 
215 745 -3.115690 1.544916 2.082 
225 745 -2.988724 1.710846 1.567 
235 745 -3.022669 1.533601 1.147 
245 745 -3.056614 1.356356 1.017 
255 745 -2.920548 0.876089 1.048 
265 745 -3.042105 1.708141 1.025 
275 745 -2.689712 3.069183 1.259 
285 745 -2.493015 4.005659 2.088 
295 745 -2.418898 3.452943 1.902 
305 745 -2.453642 2.636552 2.393 
315 745 -1.720309 1.951204 2.992 
325 745 -0.783194 1.690637 3.141 
335 745 -0.593621 1.396553 2.254 
345 745 -0.530234 1.083653 1.053 
355 745 -0.327522 0.784248 1.307 
365 745 -0.965666 0.707004 2.260 
375 745 -1.637953 0.811249 1.150 
385 745 -1.985593 0.684241 1.254 
395 745 -2.185174 1.111331 3.518 
405 745 -2.243801 1.360186 3.179 
415 745 -2.424306 1.421522 6.998 
425 745 -3.005802 0.941186 1.773 
435 745 -2.906309 0.914858 1.622 
445 745 -2.806817 0.888530 1.516 
455 745 -2.875454 1.106240 1.309 
465 745 -3.175612 1.531133 1.382 
475 745 -3.174273 1.580155 1.069 
485 745 -3.017526 1.475500 1.964 
495 745 -3.169635 1.312734 3.812 
505 745 -3.086073 1.584197 4.313 
515 745 -3.002511 1.855659 1.861 
525 745 -3.079202 2.116607 1.881 
535 745 -3.224439 2.109143 1.243 
545 745 -3.357661 1.974948 1.975 
555 745 -3.577239 2.194203 1.141 
565 745 -4.325466 3.063470 1.804 
575 745 -4.406979 3.355129 3.648 
585 745 -4.344355 3.018601 3.572 
595 745 -4.211199 2.307345 2.107 
605 745 -4.458740 2.174536 3.259 
615 745 -4.590748 1.726557 3.815 
625 745 -4.474983 1.142134 1.585 
635 745 -4.401622 0.945410 1.957 
645 745 -4.219817 1.341651 1.849 
655 745 -3.981027 1.560301 5.973 
665 745 -3.967867 1.639456 2.714 
675 745 -4.448167 1.672369 8.401 
685 745 -4.917285 1.811088 8.970 
695 745 -4.946425 1.916758 5.937 
705 745 -4.430470 1.999339 1.481 
715 745 -3.910162 1.465744 1.701 
725 745 -3.614719 0.928251 2.794 
735 745 -3.714015 1.049208 2.516 
745 745 -3.356888 -0.173866 5.399 
755 745 -2.873352 -0.789802 14.113 
765 745 -2.373070 -0.983259 3.894 
775 745 -2.101176 -1.461882 2.318 
785 745 -2.623348 -1.708179 2.023 
795 745 -2.936018 -1.718982 1.161 
805 745 -3.260681 -0.956745 1.484 
815 745 -3.083100 -0.779607 2.603 
825 745 -2.823611 -1.385521 2.104 
835 745 -2.864399 -1.528556 1.508 
845 745 -2.543023 -1.138143 1.085 
855 745 -2.552597 -1.164649 1.044 
865 745 -2.809050 -1.785704 1.527 
875 745 -3.628813 -1.864676 2.322 
885 745 -3.263198 -1.214500 2.276 
895 745 -2.557184 -1.167470 1.052 
905 745 -2.910244 -1.086163 3.261 
915 745 -3.318630 -1.182236 1.772 
925 745 -3.622921 -1.619093 1.702 
935 745 -3.884547 -2.175205 2.542 
945 745 -4.241386 -2.341439 3.537 
955 745 -4.569048 -2.156834 1.825 
965 745 -4.689510 -2.235824 1.690 
975 745 -4.745704 -2.429228 1.512 
985 745 -4.816031 -2.800814 1.456 
995 745 -4.669914 -3.003599 2.084 
1005 745 -4.693868 -2.710928 2.818 
1015 745 -4.916598 -2.511879 5.701 
1025 745 -5.165225 -2.404906 2.526 
1035 745 -6.278782 -2.465903 5.897 
1045 745 -6.721027 -2.462468 5.270 
1055 745 -5.820551 -2.194772 2.586 
1065 745 -5.175580 -1.904632 1.014 
1075 745 -4.923527 -1.689816 1.014 
1085 745 -5.108694 -2.285469 2.155 
1095 745 -5.380563 -2.663619 4.335 
1105 745 -5.286017 -3.189740 1.905 
1115 745 -5.312700 -3.269682 1.748 
1125 745 -5.169906 -2.308359 1.840 
1135 745 -4.485995 -1.034290 2.437 
1145 745 -2.780424 0.045034 5.848 
1155 745 -1.584952 0.744511 1.070 
1165 745 1.333861 1.485714 1.004 
1175 745 2.497739 2.501179 1.193 
1185 745 1.566993 3.503328 1.552 
1195 745 -1.007596 4.680143 1.121 
1205 745 -0.705604 5.244868 1.419 
1215 745 0.635382 3.686459 1.063 
1225 745 1.715560 1.531435 1.124 
1235 745 0.653679 0.793458 1.160 
1245 745 -1.682657 1.064857 1.401 
1255 745 -1.299957 0.789257 1.217 
1265 745 0.558028 0.272426 1.010 
1275 745 -0.593876 0.642921 1.099 
5 735 -1.396073 6.282650 1.304 
15 735 -0.105397 6.335193 1.304 
25 735 0.432959 5.186636 1.348 
35 735 -0.506026 5.704731 1.377 
45 735 1.174475 2.673308 1.041 
55 735 0.688752 -0.638054 1.461 
65 735 -2.989174 -0.837262 1.037 
75 735 -7.194652 -0.711653 1.113 
85 735 -6.864036 -0.109476 1.145 
95 735 -2.148717 -1.633663 1.213 
105 735 -3.638827 -0.698248 1.614 
115 735 -3.973991 3.101274 1.013 
125 735 -3.104591 5.022099 1.160 
135 735 -0.693389 4.514311 1.221 
145 735 -0.446771 4.884284 1.048 
155 735 -0.718158 5.074419 1.327 
165 735 -0.532001 4.289953 1.986 
175 735 -0.874292 3.284157 1.213 
185 735 -1.219264 2.266143 1.929 
195 735 -1.631118 1.623877 1.078 
205 735 -2.130261 1.784529 1.287 
215 735 -2.698841 1.492338 1.060 
225 735 -3.096485 1.430398 1.111 
235 735 -3.035577 1.031834 2.187 
245 735 -2.974669 0.633270 1.272 
255 735 -1.960076 0.743060 2.396 
265 735 -1.807573 1.807535 2.102 
275 735 -2.016373 4.117470 2.019 
285 735 -2.105849 4.684110 2.342 
295 735 -2.081819 3.997399 2.279 
305 735 -1.822353 2.972989 1.733 
315 735 -1.385711 2.384966 1.591 
325 735 -0.732617 1.983679 1.032 
335 735 -0.435374 1.646263 1.192 
345 735 -0.499363 1.088131 1.253 
355 735 -0.611847 0.816631 2.007 
365 735 -0.817390 0.510319 1.009 
375 735 -1.678124 0.712349 1.948 
385 735 -2.485184 1.552958 1.476 
395 735 -2.429233 1.510599 4.104 
405 735 -2.373282 1.468240 2.176 
415 735 -2.766165 1.416482 6.195 
425 735 -2.951336 0.757220 1.352 
435 735 -2.939103 0.854997 2.346 
445 735 -2.926871 0.952774 3.200 
455 735 -3.061924 1.218204 2.565 
465 735 -3.168360 1.433881 1.707 
475 735 -3.241330 1.522083 2.094 
485 735 -3.231095 1.897877 2.018 
495 735 -3.236994 1.733396 3.729 
505 735 -3.315714 1.829644 2.175 
515 735 -3.033670 1.930685 5.182 
525 735 -2.962504 1.984410 3.169 
535 735 -3.077708 1.832727 5.699 
545 735 -2.844422 1.634205 4.735 
555 735 -2.919549 1.646501 2.384 
565 735 -2.940222 2.313051 1.232 
575 735 -3.255431 3.493053 1.228 
585 735 -3.300332 3.441333 2.732 
595 735 -3.230256 2.536869 2.304 
605 735 -3.978059 2.004118 1.745 
615 735 -4.535952 1.459791 2.329 
625 735 -4.416080 1.093025 1.777 
635 735 -4.429318 0.852657 1.602 
645 735 -4.395186 0.938191 2.649 
655 735 -4.136771 1.084414 2.368 
665 735 -3.986811 1.427305 1.532 
675 735 -4.445518 1.551881 3.662 
685 735 -5.005849 1.642714 2.574 
695 735 -5.189634 1.833669 2.152 
705 735 -5.131115 2.268146 1.174 
715 735 -4.469765 1.888234 1.141 
725 735 -4.373687 1.562301 2.215 
735 735 -4.360991 1.389346 3.524 
745 735 -4.105411 1.084328 1.158 
755 735 -3.188504 0.210065 1.107 
765 735 -2.574136 0.223362 20.000 
775 735 -2.661981 -0.733809 1.306 
785 735 -2.825105 -1.174751 1.703 
795 735 -2.989599 -1.297181 1.178 
805 735 -2.996139 -0.978013 1.419 
815 735 -2.959549 -1.167144 1.671 
825 735 -2.766487 -1.290290 1.771 
835 735 -2.412457 -1.238168 2.555 
845 735 -1.882815 -1.079364 3.691 
855 735 -1.790294 -1.321194 4.190 
865 735 -2.225403 -2.153167 1.372 
875 735 -2.958052 -2.160352 1.195 
885 735 -2.492123 -1.499959 4.655 
895 735 -2.453815 -1.114127 5.883 
905 735 -2.646336 -0.854031 25.260 
915 735 -3.208143 -0.962234 2.715 
925 735 -3.474018 -1.509436 3.194 
935 735 -3.648391 -2.268744 3.096 
945 735 -3.987978 -2.703358 3.535 
955 735 -4.350697 -2.485248 2.701 
965 735 -4.569712 -2.427279 2.134 
975 735 -4.725781 -2.453474 4.440 
985 735 -4.778160 -2.722118 47.069 
995 735 -4.776123 -2.631667 20.000 