TITLE = "B00298"
VARIABLES = "x", "y", "u", "v", "sn"
ZONE T="Frame 0", I=128, J=80
5 795 0.000000 -0.000000 1.140 
15 795 11.322455 5.643233 1.140 
25 795 10.377877 1.497343 1.008 
35 795 7.487040 -1.936108 1.372 
45 795 4.070793 -1.199820 1.120 
55 795 3.721202 1.486991 1.040 
65 795 3.371611 4.173801 1.148 
75 795 3.022020 6.860612 1.228 
85 795 2.672429 9.547422 1.956 
95 795 2.568021 8.999340 1.441 
105 795 3.725481 6.540517 1.374 
115 795 3.601108 4.329726 1.785 
125 795 1.431896 3.001317 1.466 
135 795 0.946599 1.368770 1.742 
145 795 3.750343 0.680391 1.004 
155 795 2.734311 0.399363 1.231 
165 795 1.718279 0.118334 1.019 
175 795 -3.966562 0.023666 7.271 
185 795 -6.418067 0.054579 2.661 
195 795 -6.440718 -0.381708 3.574 
205 795 -6.437107 -0.808902 10.078 
215 795 -6.262844 -1.316145 1.388 
225 795 -6.178549 -1.781657 2.770 
235 795 -5.989107 -0.711549 1.090 
245 795 -6.276405 -1.007197 1.257 
255 795 -6.752779 -1.568193 1.521 
265 795 -7.088731 -1.240530 4.570 
275 795 -7.261005 -1.249767 8.458 
285 795 -6.964443 -1.254090 1.541 
295 795 -6.667882 -1.258414 1.407 
305 795 -6.624522 -1.264309 1.846 
315 795 -6.581162 -1.270205 2.244 
325 795 -6.449827 -1.851560 1.329 
335 795 -6.483691 -2.152917 2.294 
345 795 -6.740659 -2.421878 3.251 
355 795 -6.677093 -2.435477 1.811 
365 795 -6.613528 -2.449077 2.436 
375 795 -6.764349 -2.185800 1.124 
385 795 -6.376025 -2.752739 1.788 
395 795 -2.297732 -8.769154 1.620 
405 795 1.780561 -14.785568 1.583 
415 795 1.926123 -14.673705 1.425 
425 795 -4.877064 -5.503985 1.689 
435 795 -6.001267 -4.181603 2.291 
445 795 -7.125470 -2.859220 2.099 
455 795 -9.145350 -2.237620 1.056 
465 795 -3.025537 0.101085 1.506 
475 795 3.946771 2.798856 1.090 
485 795 3.407242 2.055944 1.585 
495 795 -0.500164 1.336576 1.035 
505 795 -4.646939 0.264002 2.503 
515 795 -5.424434 0.273033 3.091 
525 795 -5.147723 0.273970 2.810 
535 795 -5.014274 -0.582417 2.057 
545 795 -4.498440 -2.049501 20.000 
555 795 -4.569344 -2.591117 20.000 
565 795 -4.997803 -2.930276 6.731 
575 795 -5.100060 -2.411918 3.112 
585 795 -5.567115 -1.758021 2.733 
595 795 -6.149533 -0.799762 3.069 
605 795 -6.478168 -0.057203 2.587 
615 795 -5.918037 -0.206271 4.768 
625 795 -5.602469 -0.746520 4.294 
635 795 -5.744215 -0.859392 3.788 
645 795 -6.102456 -0.153328 2.334 
655 795 -4.904770 2.071055 1.377 
665 795 -1.793503 5.880752 1.101 
675 795 4.831328 11.785672 1.393 
685 795 5.132049 12.560292 1.840 
695 795 5.432770 13.334913 1.491 
705 795 5.733490 14.109534 1.308 
715 795 4.895296 8.153001 1.132 
725 795 4.057101 2.196468 1.298 
735 795 -0.755444 1.220527 1.233 
745 795 -5.567989 0.244587 2.194 
755 795 -6.812491 -1.127539 2.166 
765 795 -6.789030 -0.733966 1.418 
775 795 -6.595789 -0.033054 1.713 
785 795 -6.402549 0.667857 1.610 
795 795 -1.861460 12.257692 2.766 
805 795 -1.395657 12.716388 2.472 
815 795 -2.961249 9.964658 1.099 
825 795 -8.675264 -0.853894 1.389 
835 795 -8.523260 -0.112476 1.182 
845 795 -8.371255 0.628942 1.461 
855 795 -6.178782 1.931998 1.089 
865 795 -6.082508 1.989981 1.361 
875 795 -5.986234 2.047964 1.187 
885 795 -3.703422 3.484004 1.039 
895 795 -1.420610 4.920043 1.144 
905 795 0.862202 6.356083 1.184 
915 795 -6.102964 6.143039 1.239 
925 795 -6.646396 5.132796 1.428 
935 795 -6.375451 5.005616 1.274 
945 795 -6.629510 5.003770 2.219 
955 795 -6.279821 4.386077 2.424 
965 795 -6.155123 3.464719 7.921 
975 795 -6.236532 3.104253 1.175 
985 795 -7.036681 3.232571 1.304 
995 795 -6.648957 3.525336 1.335 
1005 795 -6.432936 3.945837 1.514 
1015 795 -6.216915 4.366338 2.383 
1025 795 -6.000895 4.786839 1.269 
1035 795 -2.128808 5.693000 1.063 
1045 795 1.422973 6.146059 1.549 
1055 795 0.741326 5.644613 1.060 
1065 795 -4.460208 4.022594 1.089 
1075 795 -4.350091 4.511170 1.506 
1085 795 -3.001008 5.784951 1.173 
1095 795 -2.885150 3.629688 1.293 
1105 795 -2.769292 1.474426 2.822 
1115 795 -2.653435 -0.680836 3.248 
1125 795 2.599648 -6.104000 1.378 
1135 795 2.403195 0.040566 1.215 
1145 795 2.206742 6.185133 1.023 
1155 795 2.010290 12.329699 1.333 
1165 795 1.813837 18.474266 1.580 
1175 795 1.617384 24.618832 1.026 
1185 795 3.204840 18.244568 1.084 
1195 795 3.622953 13.688717 1.130 
1205 795 1.774042 14.456499 1.006 
1215 795 0.989091 11.613921 1.113 
1225 795 0.204139 8.771342 1.101 
1235 795 -0.580813 5.928764 1.016 
1245 795 5.807180 -2.083057 1.833 
1255 795 12.773286 -6.803834 1.155 
1265 795 0.000000 -0.000000 1.027 
1275 795 0.000000 -0.000000 1.020 
5 785 0.000000 -0.000000 1.140 
15 785 9.185193 6.240473 1.140 
25 785 9.843475 2.462740 1.008 
35 785 10.329455 -1.029425 1.372 
45 785 4.714344 -0.472449 1.120 
55 785 1.507773 -1.613946 1.040 
65 785 1.759246 7.660631 1.148 
75 785 1.656141 9.678798 1.228 
85 785 2.498975 8.794573 1.956 
95 785 2.724737 7.832959 1.441 
105 785 3.260556 4.805932 1.374 
115 785 2.955514 3.729643 1.785 
125 785 0.725774 2.687045 1.466 
135 785 -0.400543 1.140072 1.742 
145 785 1.480093 0.567710 1.004 
155 785 3.421202 0.210520 1.231 
165 785 -0.445741 0.135541 1.019 
175 785 -5.504935 0.241713 7.271 
185 785 -7.013729 0.088491 2.661 
195 785 -6.785423 -0.370361 3.574 
205 785 -6.376960 -0.683094 10.078 
215 785 -6.301983 -1.232875 1.388 
225 785 -6.161425 -1.785773 2.770 
235 785 -5.849073 -0.878800 1.090 
245 785 -6.086876 -1.077255 1.257 
255 785 -6.323297 -1.366657 1.521 
265 785 -6.798557 -1.192348 4.570 
275 785 -6.967334 -1.215901 8.458 
285 785 -6.938734 -1.445675 1.541 
295 785 -6.611591 -1.212987 1.407 
305 785 -6.606480 -1.270781 1.846 
315 785 -6.601369 -1.328576 2.244 
325 785 -6.547602 -1.907898 1.329 
335 785 -6.720441 -2.201185 2.294 
345 785 -6.950501 -2.455139 3.251 
355 785 -7.240651 -2.656979 1.811 
365 785 -6.707968 -2.454284 2.436 
375 785 -6.945248 -2.102967 1.124 
385 785 -7.226683 -1.780682 1.788 
395 785 -6.495042 -2.778721 1.620 
405 785 -3.897037 -6.989468 1.583 
415 785 -2.525253 -9.038910 1.425 
425 785 -6.524575 -3.658003 1.689 
435 785 -7.279819 -2.397914 2.291 
445 785 -7.330232 -2.760491 2.099 
455 785 -8.576815 -2.178127 1.056 
465 785 -4.131421 -0.383365 1.506 
475 785 1.345939 1.469158 1.090 
485 785 2.513343 1.731172 1.585 
495 785 -1.966471 0.917468 1.035 
505 785 -4.886697 0.335754 2.503 
515 785 -5.702823 0.240598 3.091 
525 785 -5.488467 -0.083235 2.810 
535 785 -5.249573 -1.083541 2.057 
545 785 -4.795081 -2.644446 20.000 
555 785 -4.821218 -3.174315 20.000 
565 785 -5.191561 -3.458497 6.731 
575 785 -5.363384 -2.852394 3.112 
585 785 -5.841281 -2.103983 2.733 
595 785 -6.299480 -1.068792 3.069 
605 785 -6.489428 -0.245254 2.587 
615 785 -6.209159 -0.431058 4.768 
625 785 -5.935961 -1.005494 4.294 
635 785 -6.148675 -0.846764 3.788 
645 785 -6.220733 -0.778089 2.334 
655 785 -5.157326 1.045121 1.377 
665 785 -2.633420 4.381516 1.101 
675 785 3.357557 10.319046 1.393 
685 785 3.144256 12.704977 1.840 
695 785 2.936428 15.517425 1.491 
705 785 3.616881 14.036628 1.308 
715 785 4.103540 8.457363 1.132 
725 785 3.916578 1.187614 1.298 
735 785 -1.096471 -0.692631 1.233 
745 785 -5.240965 -0.667618 2.194 
755 785 -6.289610 -1.320241 2.166 
765 785 -6.396527 -1.168493 1.418 
775 785 -6.433334 -0.410241 1.713 
785 785 -6.003918 0.235968 1.610 
795 785 -3.477223 6.372945 2.766 
805 785 -3.253755 6.671904 2.472 
815 785 -4.065476 4.976872 1.099 
825 785 -7.318287 -0.540069 1.389 
835 785 -7.979039 -0.409377 1.182 
845 785 -8.286917 -0.046322 1.461 
855 785 -6.071714 1.477610 1.089 
865 785 -6.010039 1.716342 1.361 
875 785 -5.484363 2.162241 1.187 
885 785 -2.644914 2.724383 1.039 
895 785 0.194534 3.286526 1.144 
905 785 1.189884 6.515210 1.184 
915 785 -5.710025 6.290722 1.239 
925 785 -6.234781 5.156893 1.428 
935 785 -6.473530 4.863816 1.274 
945 785 -6.744705 4.905988 2.219 
955 785 -6.455810 4.386877 2.424 
965 785 -6.370005 3.510234 7.921 
975 785 -6.410315 3.164660 1.175 
985 785 -7.130471 3.349129 1.304 
995 785 -6.732054 3.724005 1.335 
1005 785 -6.155043 4.151636 1.514 
1015 785 -6.107686 4.603364 2.383 
1025 785 -6.060329 5.055093 1.269 
1035 785 -2.462173 6.013793 1.063 
1045 785 -0.958461 6.005313 1.549 
1055 785 0.545251 5.996832 1.060 
1065 785 -4.316874 4.431477 1.089 
1075 785 -4.672047 4.987383 1.506 
1085 785 -3.725417 5.741884 1.173 
1095 785 -4.333789 5.164684 1.293 
1105 785 -4.942161 4.587483 2.822 
1115 785 -3.616848 3.481714 3.248 
1125 785 1.674825 -1.649704 1.378 
1135 785 2.671534 -6.524970 1.215 
1145 785 1.185709 -8.138597 1.023 
1155 785 -1.111938 8.230580 1.333 
1165 785 -1.651585 23.899965 1.580 
1175 785 0.149141 21.377132 1.026 
1185 785 3.288933 9.145594 1.084 
1195 785 2.875000 0.317936 1.130 
1205 785 0.326621 9.139547 1.006 
1215 785 -0.247745 13.258244 1.113 
1225 785 -0.570070 12.735022 1.101 
1235 785 -1.158540 5.074069 1.016 
1245 785 5.139533 -4.344959 1.833 
1255 785 11.171480 -7.057266 1.155 
1265 785 13.781857 -6.010673 1.027 
1275 785 0.000000 -0.000000 1.020 
5 775 5.098810 11.394558 1.292 
15 775 7.047932 6.837713 1.292 
25 775 9.309073 3.428136 1.442 
35 775 8.550310 -0.094276 1.612 
45 775 3.111631 -0.819494 1.015 
55 775 1.583364 -2.093073 1.307 
65 775 1.304079 0.688880 1.628 
75 775 0.750329 3.317508 1.261 
85 775 2.351623 6.940663 1.208 
95 775 2.443089 4.990896 1.261 
105 775 2.795631 3.071347 1.405 
115 775 1.605253 1.924165 2.125 
125 775 -0.210399 1.758485 1.110 
135 775 -1.747685 0.911375 1.008 
145 775 0.381737 -0.299276 1.279 
155 775 0.660539 -0.590862 1.154 
165 775 -1.251400 -0.756841 1.178 
175 775 -5.932406 -0.200984 10.160 
185 775 -7.065862 -0.321115 1.663 
195 775 -7.041071 -0.044542 1.858 
205 775 -6.745815 -0.590708 4.941 
215 775 -6.396806 -1.252475 1.063 
225 775 -5.994437 -1.619479 6.056 
235 775 -5.582281 -1.810746 2.130 
245 775 -5.492371 -0.862227 3.320 
255 775 -5.893815 -1.165121 3.044 
265 775 -6.400883 -1.067796 2.070 
275 775 -6.729494 -1.053601 5.346 
285 775 -6.850021 -1.156712 1.178 
295 775 -6.895838 -1.258862 1.828 
305 775 -6.870948 -1.238796 2.668 
315 775 -6.952909 -1.535385 2.778 
325 775 -6.735672 -1.735593 1.450 
335 775 -7.206853 -2.345605 1.002 
345 775 -7.324763 -2.404147 1.165 
355 775 -7.263896 -2.853416 1.032 
365 775 -6.903501 -2.538400 3.483 
375 775 -7.015908 -1.863765 1.704 
385 775 -7.408967 -1.491779 1.949 
395 775 -7.445045 -1.393552 1.931 
405 775 -7.210837 -2.398834 1.011 
415 775 -6.976629 -3.404115 1.668 
425 775 -7.602184 -2.734084 1.773 
435 775 -8.078184 -2.126918 2.009 
445 775 -7.890906 -2.349875 9.034 
455 775 -8.273942 -2.366587 1.678 
465 775 -6.622785 -1.738330 1.023 
475 775 -1.254894 0.139460 2.151 
485 775 -1.192245 0.203920 1.047 
495 775 -3.432778 0.498360 3.854 
505 775 -5.818729 0.132606 2.724 
515 775 -6.724821 -0.239573 2.209 
525 775 -6.224377 -0.224315 2.244 
535 775 -5.862885 -1.437317 1.520 
545 775 -5.531559 -2.435384 1.666 
555 775 -5.557539 -2.838163 2.281 
565 775 -5.878869 -3.126492 2.198 
575 775 -5.911777 -3.073013 2.171 
585 775 -6.074171 -2.415630 2.294 
595 775 -6.195982 -1.104418 2.178 
605 775 -6.392004 -0.207420 2.128 
615 775 -6.332845 -0.085699 3.504 
625 775 -6.396088 -0.577003 2.248 
635 775 -6.553134 -0.834136 1.576 
645 775 -6.593643 -1.013354 16.003 
655 775 -6.018602 0.292943 1.752 
665 775 -4.081097 3.833402 1.334 
675 775 -1.011572 8.582109 1.254 
685 775 -1.230535 13.083206 3.476 
695 775 -0.570196 14.995856 3.913 
705 775 0.023167 13.922595 1.367 
715 775 1.904251 7.054129 1.066 
725 775 2.182905 0.216035 1.402 
735 775 -2.123732 -1.377916 1.348 
745 775 -5.720194 -0.386406 1.350 
755 775 -6.229546 -1.308775 1.127 
765 775 -5.899151 -1.241983 2.410 
775 775 -5.645090 -0.731894 2.667 
785 775 -5.202149 -0.057712 1.969 
795 775 -5.092986 0.488198 1.003 
805 775 -5.111854 0.627421 1.072 
815 775 -5.169703 -0.010913 5.088 
825 775 -5.961310 -0.226244 3.387 
835 775 -6.974935 -0.327913 7.590 
845 775 -6.547355 0.540524 3.134 
855 775 -5.547184 1.700345 1.249 
865 775 -5.158623 1.810607 1.189 
875 775 -5.049590 1.916406 1.607 
885 775 -3.975526 3.393887 1.036 
895 775 -3.309245 3.550878 1.053 
905 775 -3.061520 5.311146 1.003 
915 775 -5.976612 5.667330 1.626 
925 775 -6.091914 5.004461 3.940 
935 775 -6.787891 4.574803 3.510 
945 775 -7.073146 4.510817 2.960 
955 775 -7.070207 4.523865 1.513 
965 775 -6.759023 3.970879 2.039 
975 775 -6.145828 3.710100 2.121 
985 775 -6.024937 4.132304 1.216 
995 775 -6.518637 4.497093 1.005 
1005 775 -6.085815 4.615334 1.069 
1015 775 -6.167774 4.860500 2.002 
1025 775 -6.441634 5.809252 1.831 
1035 775 -4.903890 5.918500 1.426 
1045 775 -3.652066 5.921652 1.007 
1055 775 -2.686160 5.818706 1.126 
1065 775 -5.643201 4.751527 1.203 
1075 775 -4.619389 4.979127 1.089 
1085 775 -4.449826 5.698818 1.071 
1095 775 -4.566721 5.760938 3.108 
1105 775 -4.683615 5.823058 86.101 
1115 775 -3.486994 5.560742 8.395 
1125 775 -0.939160 2.095299 1.045 
1135 775 2.350988 -1.707802 1.097 
1145 775 1.936695 -1.252164 1.354 
1155 775 -0.733694 4.507416 1.165 
1165 775 -1.186347 12.969526 1.008 
1175 775 -2.083290 4.656835 1.447 
1185 775 1.436377 1.668423 1.257 
1195 775 1.998011 0.203727 1.277 
1205 775 -1.120801 3.822595 1.073 
1215 775 0.121701 11.999514 1.055 
1225 775 -2.008189 10.032890 1.210 
1235 775 -3.261796 4.319929 1.127 
1245 775 2.636756 -3.335379 1.011 
1255 775 7.992043 -6.762640 1.171 
1265 775 11.450157 -6.429332 1.684 
1275 775 0.000000 -0.000000 1.599 
5 765 -12.921925 14.656843 1.383 
15 765 -3.168836 4.343187 1.383 
25 765 4.693452 2.837486 1.458 
35 765 4.559814 0.228829 1.489 
45 765 0.865806 -0.674531 1.159 
55 765 0.534227 -1.680249 1.195 
65 765 1.210011 -1.206788 1.446 
75 765 1.707141 1.939982 1.068 
85 765 2.204271 5.086753 1.054 
95 765 3.250759 5.085494 1.692 
105 765 1.753386 0.881757 1.943 
115 765 0.760655 0.125958 1.245 
125 765 -0.655361 0.299013 1.503 
135 765 -1.833757 0.027070 1.366 
145 765 -2.745462 -1.026865 1.072 
155 765 -2.100123 -1.392245 1.114 
165 765 -3.917391 -0.907626 2.290 
175 765 -5.112152 -0.499897 2.725 
185 765 -6.160823 -0.238539 1.790 
195 765 -7.471375 -0.202324 1.370 
205 765 -7.367192 -0.273531 1.528 
215 765 -6.884368 -0.235711 1.138 
225 765 -6.348741 -1.279363 1.022 
235 765 -6.141578 -1.623740 2.032 
245 765 -5.408988 -0.832246 2.781 
255 765 -5.529420 -0.896333 2.873 
265 765 -5.636234 -0.880934 1.622 
275 765 -5.800603 -1.173615 1.927 
285 765 -6.548128 -1.345286 1.334 
295 765 -7.317184 -1.644406 1.188 
305 765 -7.473203 -1.502343 3.067 
315 765 -7.340023 -1.652703 2.753 
325 765 -7.023334 -1.815958 1.292 
335 765 -7.456828 -1.997696 1.316 
345 765 -7.699025 -2.353154 1.520 
355 765 -7.402806 -2.849569 1.087 
365 765 -7.306264 -2.847178 2.302 
375 765 -7.302146 -2.186986 3.612 
385 765 -7.591252 -1.202875 1.295 
395 765 -7.639921 -0.946710 1.345 
405 765 -7.282729 -1.395001 2.320 
415 765 -7.308529 -2.156714 1.985 
425 765 -7.796146 -2.448778 1.390 
435 765 -8.066612 -2.179760 2.292 
445 765 -8.451580 -1.939259 2.348 
455 765 -7.704840 -2.008953 2.334 
465 765 -7.200518 -2.289653 2.018 
475 765 -5.798795 -2.151381 1.129 
485 765 -3.457623 -0.314025 1.947 
495 765 -5.945648 -0.010435 1.216 
505 765 -6.819303 -0.026146 1.456 
515 765 -7.615395 -0.395489 1.252 
525 765 -7.157343 -0.723639 1.123 
535 765 -6.810964 -1.443107 1.319 
545 765 -6.812669 -2.226733 1.303 
555 765 -6.885683 -2.463913 1.514 
565 765 -6.864242 -2.476028 2.583 
575 765 -6.701119 -2.193772 1.525 
585 765 -6.415662 -1.924989 1.133 
595 765 -6.019849 -0.792491 1.080 
605 765 -6.110128 0.149292 1.500 
615 765 -6.361199 0.164529 3.582 
625 765 -6.537176 -0.319555 2.460 
635 765 -6.581873 -0.570564 1.966 
645 765 -6.652959 -0.630331 2.279 
655 765 -6.400743 0.609954 20.000 
665 765 -5.399847 3.722831 4.125 
675 765 -4.499041 7.787629 1.291 
685 765 -4.301892 12.273753 3.849 
695 765 -4.076820 14.474287 5.393 
705 765 -2.858799 12.456462 3.322 
715 765 1.193811 5.874967 1.846 
725 765 0.929764 -2.499312 1.001 
735 765 1.367464 -1.772972 1.981 
745 765 -6.488171 -0.369099 1.746 
755 765 -6.024628 -0.460289 1.633 
765 765 -4.860553 -0.723332 1.521 
775 765 -4.903752 -0.654925 3.264 
785 765 -4.504604 0.038257 1.897 
795 765 -4.115375 0.837202 1.185 
805 765 -4.125343 0.463053 1.066 
815 765 -4.379337 -0.348313 2.743 
825 765 -4.948996 -0.568158 2.733 
835 765 -5.483326 -0.111105 3.028 
845 765 -5.054631 1.045480 3.016 
855 765 -4.096891 2.494478 1.013 
865 765 -4.649819 2.243799 2.125 
875 765 -4.927380 2.200858 1.357 
885 765 -4.646149 3.422605 1.680 
895 765 -6.813023 3.815230 11.595 
905 765 -7.312924 4.107082 11.991 
915 765 -6.279586 4.547220 1.543 
925 765 -6.326744 4.425514 1.447 
935 765 -6.706267 4.197925 1.063 
945 765 -6.954127 4.152098 1.412 
955 765 -6.794948 4.242140 1.176 
965 765 -6.738354 3.966431 1.398 
975 765 -6.482596 3.923938 1.999 
985 765 -6.448879 4.561361 2.050 
995 765 -6.737469 4.838093 1.585 
1005 765 -6.081556 4.920427 1.280 
1015 765 -5.858595 5.152007 2.521 
1025 765 -6.290793 5.425556 1.016 
1035 765 -5.985036 5.779968 1.560 
1045 765 -5.807864 5.932456 1.006 
1055 765 -5.499769 5.539289 1.175 
1065 765 -5.105174 4.985133 1.441 
1075 765 -4.341824 5.134446 1.010 
1085 765 -3.134129 5.359767 1.548 
1095 765 -3.848281 5.371089 1.804 
1105 765 -4.176975 5.394917 2.421 
1115 765 -3.364693 6.035578 2.528 
1125 765 -3.204481 5.194916 1.278 
1135 765 0.759162 1.501286 1.048 
1145 765 0.223843 -0.741136 1.493 
1155 765 -0.355450 0.784252 1.615 
1165 765 -0.721108 2.039086 1.170 
1175 765 2.094730 -1.040984 1.012 
1185 765 3.159629 -2.428803 1.844 
1195 765 0.345042 -0.841238 1.203 
1205 765 -5.626206 5.655933 1.321 
1215 765 -7.505318 9.233900 1.002 
1225 765 -8.212055 7.715645 1.374 
1235 765 -7.187855 3.246828 1.036 
1245 765 -1.389116 0.182133 1.262 
1255 765 4.812605 -6.468015 1.045 
1265 765 8.841293 -5.682062 1.134 
1275 765 0.000000 -0.000000 1.093 
5 755 -18.799857 5.827510 1.286 
15 755 -13.244600 2.190435 1.286 
25 755 -5.773372 1.363878 1.023 
35 755 -0.166336 1.191334 1.065 
45 755 -0.844844 1.370555 1.398 
55 755 -0.429999 -0.150771 1.097 
65 755 1.868894 -2.062289 1.190 
75 755 2.657185 1.803387 1.160 
85 755 3.445476 5.669062 1.119 
95 755 4.058429 5.180093 1.018 
105 755 0.817900 4.352808 1.056 
115 755 1.260833 -0.171042 1.070 
125 755 0.273622 0.164967 1.468 
135 755 -1.441317 -0.542522 1.360 
145 755 -3.947935 -1.612011 1.407 
155 755 -4.456859 -1.787369 1.197 
165 755 -4.486335 -0.814275 1.343 
175 755 -5.232604 -0.430407 2.227 
185 755 -6.042727 -0.026862 1.480 
195 755 -7.797017 -0.242446 1.570 
205 755 -7.662401 -0.373843 1.145 
215 755 -7.139772 -0.515077 1.231 
225 755 -6.954483 -0.265112 1.380 
235 755 -6.700875 -1.436735 1.376 
245 755 -6.145500 -0.722841 1.655 
255 755 -5.593127 -1.061567 1.266 
265 755 -5.751781 -0.994870 1.248 
275 755 -4.863153 -1.420551 1.060 
285 755 -4.999826 -1.847336 1.096 
295 755 -6.140518 -2.121952 1.087 
305 755 -7.694234 -1.915197 1.693 
315 755 -7.331727 -1.997770 1.004 
325 755 -7.432566 -1.810853 1.673 
335 755 -7.988718 -1.477584 2.032 
345 755 -8.113880 -1.808549 2.012 
355 755 -7.879294 -1.977259 2.323 
365 755 -7.949919 -2.357478 2.484 
375 755 -7.636621 -1.978373 1.222 
385 755 -7.325347 -1.482676 2.069 
395 755 -7.255875 -1.065845 2.140 
405 755 -7.225959 -1.082121 1.616 
415 755 -7.083017 -1.509683 3.596 
425 755 -7.397096 -1.997302 1.669 
435 755 -7.257847 -1.647363 1.920 
445 755 -7.037478 -1.341290 1.348 
455 755 -7.135739 -1.651319 1.636 
465 755 -7.141011 -2.083389 3.138 
475 755 -6.036478 -1.967863 2.284 
485 755 -5.723002 -0.831971 1.614 
495 755 -6.527777 0.082343 1.061 
505 755 -7.380463 -0.057599 4.929 
515 755 -7.592275 0.029428 2.163 
525 755 -7.460509 -1.156594 1.064 
535 755 -7.395975 -1.484313 2.136 
545 755 -7.334940 -1.980025 2.594 
555 755 -7.231627 -2.030633 2.405 
565 755 -7.415071 -1.171968 1.151 
575 755 -7.463889 -0.091161 1.333 
585 755 -6.512426 -0.840837 1.153 
595 755 -6.192768 -0.052456 1.219 
605 755 -6.177724 0.501434 1.674 
615 755 -6.306378 0.363222 3.585 
625 755 -6.605361 -0.163030 3.064 
635 755 -6.545777 -0.196319 2.029 
645 755 -6.466568 -0.223372 1.717 
655 755 -6.216224 0.613468 9.747 
665 755 -5.547511 3.091308 3.223 
675 755 -5.216805 6.682051 1.107 
685 755 -5.314703 9.063126 1.983 
695 755 -5.011848 10.354676 2.353 
705 755 -3.896968 8.607232 2.665 
715 755 -1.834374 3.011137 1.086 
725 755 -0.323377 -5.214658 1.229 
735 755 -7.114128 -12.907723 1.649 
745 755 -6.184581 -5.648995 1.322 
755 755 -5.457834 -0.242384 1.282 
765 755 -4.717827 -0.455882 1.195 
775 755 -4.510822 -0.305742 1.099 
785 755 -4.045574 0.213006 1.667 
795 755 -3.799776 0.665490 1.068 
805 755 -3.666068 0.181065 1.008 
815 755 -3.744484 -0.684269 1.832 
825 755 -3.850575 -0.762245 1.739 
835 755 -3.962269 0.005765 5.337 
845 755 -3.455791 1.051267 2.872 
855 755 -2.870806 2.861433 1.490 
865 755 -3.661902 2.858949 1.313 
875 755 -4.746597 2.667360 7.059 
885 755 -5.456407 3.647299 2.438 
895 755 -7.415116 3.474732 2.953 
905 755 -7.199191 3.543311 9.678 
915 755 -6.506203 4.042262 1.607 
925 755 -6.372090 4.082737 2.351 
935 755 -6.274441 3.873895 1.007 
945 755 -6.484276 3.809054 1.209 
955 755 -6.519690 3.960415 1.334 
965 755 -6.717685 3.961983 1.034 
975 755 -6.262050 3.958568 1.747 
985 755 -6.626690 4.637159 2.555 
995 755 -6.255249 4.634076 1.371 
1005 755 -5.883809 4.630994 1.546 
1015 755 -4.788259 5.033617 1.115 
1025 755 -6.139952 5.041859 2.089 
1035 755 -5.705610 5.598194 1.998 
1045 755 -4.859624 5.674808 1.234 
1055 755 -4.761355 5.614660 1.692 
1065 755 -4.567147 5.218738 1.451 
1075 755 -2.621721 5.296921 1.154 
1085 755 -2.854927 5.224517 1.528 
1095 755 -3.088133 5.152112 1.138 
1105 755 -3.479602 5.183737 1.177 
1115 755 -3.239506 6.121556 1.792 
1125 755 -3.060693 6.324675 1.410 
1135 755 -1.986752 5.633955 1.767 
1145 755 -1.702470 3.817988 2.065 
1155 755 0.683822 0.528856 1.481 
1165 755 0.035874 0.740308 1.044 
1175 755 2.891380 -3.415701 1.028 
1185 755 0.217144 -2.904093 1.700 
1195 755 -2.457092 -2.392485 1.746 
1205 755 -10.394529 3.859848 1.003 
1215 755 -15.445764 6.382657 1.405 
1225 755 -15.505711 5.177248 1.444 
1235 755 -13.479253 2.505052 1.016 
1245 755 -5.414988 3.699644 1.054 
1255 755 1.684565 6.323136 1.044 
1265 755 4.515124 -1.099560 1.413 
1275 755 0.000000 -0.000000 1.323 
5 745 -30.834408 8.022105 1.026 
15 745 -25.184316 4.825143 1.026 
25 745 -15.105976 2.660930 1.003 
35 745 -5.035004 2.069037 1.250 
45 745 -0.478640 4.413782 1.489 
55 745 1.842402 1.975440 1.354 
65 745 1.375303 0.387059 1.302 
75 745 2.299602 1.423443 1.041 
85 745 3.223901 2.459827 1.366 
95 745 3.389627 2.680518 1.123 
105 745 1.285356 2.232742 1.012 
115 745 1.849798 -0.697150 1.197 
125 745 0.424293 0.079450 1.465 
135 745 -1.532320 -0.916723 1.003 
145 745 -4.478249 -2.133162 1.205 
155 745 -5.654464 -2.080099 1.131 
165 745 -6.246960 -0.120099 1.608 
175 745 -5.805880 0.580656 1.089 
185 745 -6.207109 0.319874 1.474 
195 745 -6.970174 -0.179771 1.610 
205 745 -7.267311 -0.489575 1.020 
215 745 -6.705236 -0.350832 1.155 
225 745 -7.184934 -0.274196 1.037 
235 745 -7.607730 -0.844670 1.218 
245 745 -7.187682 -0.742074 1.013 
255 745 -6.332546 -0.981762 1.213 
265 745 -6.331937 -1.256039 1.341 
275 745 -5.446233 -1.039115 1.853 
285 745 -5.167962 -1.839752 1.312 
295 745 -4.889690 -2.640389 1.469 
305 745 -8.305962 -2.184389 1.171 
315 745 -8.051304 -2.003263 1.188 
325 745 -8.174048 -1.882782 1.071 
335 745 -8.790217 -2.195660 2.555 
345 745 -9.194965 -1.354296 1.937 
355 745 -9.235557 -0.708979 1.656 
365 745 -8.839091 -0.841182 1.568 
375 745 -8.183562 -1.261988 2.627 
385 745 -7.900765 -1.161832 6.410 
395 745 -7.739063 -0.874105 28.939 
405 745 -7.723582 -0.665324 2.515 
415 745 -7.522766 -0.691006 1.378 
425 745 -8.047204 -1.123812 2.230 
435 745 -7.180348 -0.692369 1.880 
445 745 -7.149334 -1.042194 2.269 
455 745 -6.772393 -1.248342 2.563 
465 745 -6.546970 -1.428388 167.958 
475 745 -6.120424 -1.254847 1.395 
485 745 -6.013383 -0.227375 2.038 
495 745 -6.541625 0.276812 1.793 
505 745 -7.264247 -0.035589 3.620 
515 745 -7.845691 -1.330108 6.487 
525 745 -7.763674 -1.589550 8.799 
535 745 -7.439771 -1.456230 1.053 
545 745 -7.219948 -1.684516 1.408 
555 745 -7.122828 -1.518470 1.333 
565 745 -7.412040 0.022868 1.757 
575 745 -7.122398 -0.121940 1.030 
585 745 -6.434629 0.110406 2.200 
595 745 -6.345245 0.282089 3.429 
605 745 -6.515980 0.246656 2.272 
615 745 -6.399268 0.075821 2.557 
625 745 -6.439527 -0.051266 3.193 
635 745 -6.458085 -0.093369 1.879 
645 745 -6.147458 0.030938 2.098 
655 745 -6.062443 0.323058 3.641 
665 745 -5.873644 1.740163 2.259 
675 745 -5.788710 3.889127 1.080 
685 745 -5.598654 4.863851 1.299 
695 745 -5.384235 4.918471 1.303 
705 745 -4.838952 3.868101 1.370 
715 745 -4.277430 1.092205 1.340 
725 745 -5.042654 -5.240127 1.118 
735 745 -6.205122 -7.686972 1.443 
745 745 -5.880990 -10.928891 1.128 
755 745 -4.891041 -0.024479 1.361 
765 745 -4.575100 -0.188431 1.032 
775 745 -4.365090 0.183494 1.296 
785 745 -3.888926 0.462629 1.011 
795 745 -3.484177 0.493779 1.245 
805 745 -3.399640 -0.080669 2.337 
815 745 -3.220335 -0.677089 2.999 
825 745 -2.899427 -0.624822 4.965 
835 745 -2.607543 0.197268 3.279 
845 745 -2.541098 0.798173 1.282 
855 745 -2.362056 1.880257 1.157 
865 745 -2.915113 2.621588 1.326 
875 745 -3.519763 2.547178 1.316 
885 745 -4.730911 2.639958 1.049 
895 745 -6.433744 2.928567 1.624 
905 745 -7.085457 2.979540 11.177 
915 745 -5.631984 3.169147 2.316 
925 745 -5.423671 3.584457 1.014 
935 745 -5.794813 3.709669 1.677 
945 745 -5.939465 3.564804 1.141 
955 745 -6.221674 3.616176 1.237 
965 745 -6.086529 3.685547 1.099 
975 745 -5.785936 3.585276 1.156 
985 745 -5.804472 4.470641 1.110 
995 745 -5.320515 4.304409 1.085 
1005 745 -4.836558 4.138176 1.552 
1015 745 -3.237616 4.703233 1.238 
1025 745 -4.348451 4.610754 1.488 
1035 745 -4.526901 5.271447 3.866 
1045 745 -3.653449 5.511642 3.401 
1055 745 -2.379158 5.472303 2.378 
1065 745 -2.207570 5.288247 1.294 
1075 745 -1.926787 5.291679 1.205 
1085 745 -2.280028 5.131343 1.045 
1095 745 -2.633269 4.971008 1.735 
1105 745 -3.055985 4.991919 20.000 
1115 745 -3.230234 5.984414 4.424 
1125 745 -2.903915 6.891167 2.533 
1135 745 -2.812295 7.140218 3.462 
1145 745 -2.698904 5.324908 20.000 
1155 745 -1.266312 2.585827 1.243 
1165 745 1.102358 0.489421 1.076 
1175 745 0.814043 -1.180891 1.159 
1185 745 -2.805125 -2.063272 1.112 
1195 745 -6.110925 -3.163692 1.033 
1205 745 -14.210653 2.987925 1.011 
1215 745 -15.399092 4.038691 1.013 
1225 745 -15.297849 3.036654 1.038 
1235 745 -14.638269 1.297580 1.106 
1245 745 -7.533168 3.114283 1.374 
1255 745 -1.734234 3.445005 1.012 
1265 745 -0.169714 1.114878 1.470 
1275 745 -1.275897 0.515055 1.080 
5 735 -31.051027 8.081437 1.030 
15 735 -29.180934 8.871632 1.030 
25 735 -15.461972 5.438420 1.306 
35 735 -8.025708 5.370413 1.188 
45 735 -0.079595 7.612930 1.255 
55 735 1.341956 4.890610 1.079 
65 735 1.473924 4.319959 1.019 
75 735 2.979006 -1.774527 1.704 
85 735 2.552577 -0.130298 1.125 
95 735 2.720824 0.180944 1.203 
105 735 1.752813 0.112676 1.014 
115 735 2.438763 -1.223258 1.580 
125 735 0.409990 -0.756949 1.425 
135 735 -1.533456 -1.788633 1.136 
145 735 -4.940781 -2.341095 1.879 
155 735 -6.876481 -1.064067 1.075 
165 735 -7.735305 0.678438 2.138 
175 735 -7.139697 0.842063 1.768 
185 735 -6.849626 0.399602 1.723 
195 735 -6.707590 -0.291185 2.202 
205 735 -6.643006 -0.718854 1.268 
215 735 -6.389748 -0.873163 1.482 
225 735 -7.415385 -0.283281 1.049 
235 735 -7.877978 -0.831513 2.219 
245 735 -8.062530 -0.891272 1.081 
255 735 -7.133593 -1.305720 1.169 
265 735 -7.286607 -1.347305 1.487 
275 735 -5.605472 -1.296569 1.148 
285 735 -5.179205 -1.933276 1.096 
295 735 -4.752938 -2.569983 1.324 
305 735 -8.651833 -2.280438 1.678 
315 735 -8.493535 -2.432322 1.242 
325 735 -8.543763 -2.797854 1.107 
335 735 -8.719137 -3.114380 1.762 
345 735 -9.277612 -1.691768 1.732 
355 735 -8.638265 2.637318 1.103 
365 735 -8.567634 2.402278 1.064 
375 735 -8.620909 0.040932 2.438 
385 735 -8.071114 -0.597178 24.076 
395 735 -8.129076 -0.574121 3.468 
405 735 -8.007449 -0.253039 2.276 
415 735 -8.067808 -0.080644 1.666 
425 735 -8.027310 -0.046223 1.664 
435 735 -7.419470 -0.411913 1.775 
445 735 -7.261189 -0.743098 2.677 
455 735 -7.004582 -1.187065 4.904 
465 735 -6.689266 -1.328898 9.624 
475 735 -6.441392 -0.826938 1.087 
485 735 -6.410665 -0.440559 1.476 
495 735 -6.856287 -0.492893 1.782 
505 735 -7.301909 -0.545228 2.724 
515 735 -7.757077 -1.598182 2.952 
525 735 -7.599229 -1.595702 7.330 
535 735 -7.316145 -1.327007 1.067 
545 735 -7.287876 -1.258006 1.191 
555 735 -7.014028 -1.006306 1.245 
565 735 -6.736218 -0.903652 1.859 
575 735 -6.780906 -0.152719 2.902 
585 735 -6.295238 0.370292 5.791 
595 735 -6.185256 0.586492 2.912 
605 735 -6.399438 0.281448 1.587 
615 735 -6.270056 0.241902 2.589 
625 735 -6.166830 0.266642 1.626 
635 735 -5.991432 0.221482 1.313 
645 735 -5.768234 0.162657 1.271 
655 735 -5.768216 0.173338 2.034 
665 735 -5.677053 0.813282 1.619 
675 735 -5.701207 2.247661 1.668 
685 735 -5.599576 2.690866 1.213 
695 735 -5.596388 0.404778 1.054 
705 735 -5.224408 0.254268 1.352 
715 735 -4.876001 -0.145270 1.110 
725 735 -4.546390 -1.237367 2.277 
735 735 -4.685599 -1.273138 1.117 
745 735 -4.520189 -0.791319 1.229 
755 735 -4.324248 0.193426 2.191 
765 735 -4.432373 0.079020 1.972 
775 735 -4.350590 0.826658 2.826 
785 735 -3.914452 0.773268 1.553 
795 735 -3.484265 0.438023 2.496 
805 735 -3.234634 -0.031163 2.036 
815 735 -3.143321 -0.319593 3.012 
825 735 -2.721027 -0.104188 3.112 
835 735 -2.350362 0.425053 1.320 
845 735 -2.241520 0.608167 1.156 
855 735 -1.888408 1.328013 3.114 
865 735 -1.964304 2.281388 1.561 
875 735 -3.185606 3.019668 2.310 
885 735 -3.475495 2.702659 1.112 
895 735 -4.777227 2.805787 1.060 
905 735 -4.060461 2.919320 1.121 
915 735 -4.538975 2.626502 1.118 
925 735 -5.159947 3.234990 1.379 
935 735 -5.282589 3.694772 2.012 
945 735 -5.653074 3.194629 2.179 
955 735 -5.794554 3.570152 1.026 
965 735 -5.495332 3.364336 1.387 
975 735 -5.189485 3.796099 1.230 
985 735 -4.784530 4.596081 3.599 