TITLE = "B00201"
VARIABLES = "x", "y", "u", "v", "sn"
ZONE T="Frame 0", I=128, J=80
5 795 0.000000 -0.000000 1.017 
15 795 0.000000 -0.000000 1.017 
25 795 0.000000 -0.000000 1.271 
35 795 16.185152 12.184832 1.345 
45 795 6.525817 20.574476 1.027 
55 795 4.059759 14.778630 1.051 
65 795 1.593701 8.982784 1.315 
75 795 -0.997991 5.466415 2.082 
85 795 -1.460231 1.655587 1.508 
95 795 -2.006396 -1.686812 1.162 
105 795 -1.967499 -2.961599 1.407 
115 795 -1.825701 -2.370873 1.355 
125 795 -2.468976 -0.853978 1.059 
135 795 -3.779306 0.679502 1.107 
145 795 -5.338659 2.124765 1.263 
155 795 -4.873344 1.852425 1.725 
165 795 -3.662495 1.248993 1.149 
175 795 -4.487632 1.046635 1.052 
185 795 -5.860657 1.189311 1.027 
195 795 -5.482272 1.814926 1.219 
205 795 -5.103887 2.440541 1.560 
215 795 -5.316671 2.550270 3.053 
225 795 -5.656598 3.208927 2.813 
235 795 -5.576394 3.590170 1.895 
245 795 -5.338389 3.607337 2.183 
255 795 -5.409815 3.352222 1.368 
265 795 -5.817392 3.238669 4.171 
275 795 -6.042861 2.941958 3.240 
285 795 -6.193147 2.388183 4.685 
295 795 -5.987161 2.177741 7.961 
305 795 -5.705445 2.398314 4.552 
315 795 -5.855893 2.931855 1.949 
325 795 -6.201083 3.049763 7.650 
335 795 -6.178190 3.121351 3.962 
345 795 -6.585319 3.170187 1.798 
355 795 -8.013291 2.633029 1.285 
365 795 -8.256607 2.145754 1.462 
375 795 -8.133417 2.068253 3.099 
385 795 -7.805423 1.998744 1.665 
395 795 -7.477429 1.929235 2.311 
405 795 -7.737477 1.336180 1.783 
415 795 -8.167410 1.434715 1.678 
425 795 -8.829143 0.872711 2.584 
435 795 -9.575634 0.363798 2.611 
445 795 -9.560057 0.127558 2.665 
455 795 -9.544480 -0.108681 6.796 
465 795 -9.344992 -0.250098 4.591 
475 795 -9.237350 0.066173 1.097 
485 795 -9.138666 0.457935 2.235 
495 795 -8.980238 0.377163 2.040 
505 795 -9.053274 0.232836 1.907 
515 795 -9.069924 0.350232 4.813 
525 795 -8.947729 0.649228 1.598 
535 795 -7.307394 1.534511 1.477 
545 795 -2.652541 4.280528 1.017 
555 795 -5.265972 3.172517 1.630 
565 795 -7.879403 2.064506 1.191 
575 795 -8.913853 0.640159 1.312 
585 795 -9.358227 0.140372 1.525 
595 795 -9.117780 -0.073278 3.952 
605 795 -8.712942 -0.868970 3.137 
615 795 -8.157192 -1.186756 1.741 
625 795 -7.733968 -1.208708 1.695 
635 795 -7.508935 -0.930662 1.382 
645 795 -7.150655 -0.602609 4.443 
655 795 -6.638628 -0.855121 4.405 
665 795 -6.357020 -1.271758 4.257 
675 795 -6.457883 -1.405866 4.745 
685 795 -6.796573 -0.500856 1.685 
695 795 -7.564610 0.716136 2.858 
705 795 -8.211039 0.812616 4.146 
715 795 -8.541505 0.891049 2.871 
725 795 -9.052900 1.679933 1.371 
735 795 -9.116996 1.320733 1.097 
745 795 -9.181092 0.961533 1.115 
755 795 -9.245188 0.602334 1.421 
765 795 -9.309284 0.243134 3.961 
775 795 -9.373380 -0.116066 1.380 
785 795 -9.459714 -0.193714 1.355 
795 795 -9.511624 -0.010748 2.103 
805 795 -9.353343 0.141273 10.108 
815 795 -9.149973 0.371995 12.667 
825 795 -9.121212 0.645094 2.205 
835 795 -9.293012 0.450546 2.447 
845 795 -9.255372 0.114715 2.012 
855 795 -8.504586 0.917037 1.028 
865 795 -8.790768 1.434990 1.472 
875 795 -9.407792 1.688812 1.016 
885 795 -9.909303 0.606198 1.214 
895 795 -9.692907 -0.126902 1.100 
905 795 -9.381398 -0.665280 1.521 
915 795 -9.147130 -0.792766 1.350 
925 795 -8.981584 -0.884102 1.595 
935 795 -9.094348 -0.462023 1.775 
945 795 -9.200862 0.272253 1.595 
955 795 -9.127208 0.308601 1.744 
965 795 -9.053554 0.344950 2.045 
975 795 -9.328812 0.283932 1.665 
985 795 -9.657710 0.168049 1.093 
995 795 -9.782926 -0.202492 1.199 
1005 795 -9.858847 -0.396102 1.090 
1015 795 -9.555401 -0.292493 1.071 
1025 795 -6.882743 0.606339 1.100 
1035 795 -4.298110 1.477480 1.035 
1045 795 -4.356968 1.545114 1.077 
1055 795 -4.415826 1.612749 1.006 
1065 795 -7.762688 1.231774 1.388 
1075 795 -8.502126 1.143493 1.595 
1085 795 -8.816127 1.178867 1.501 
1095 795 -9.027465 1.092592 1.108 
1105 795 -9.047176 3.121989 1.246 
1115 795 -8.602620 13.244670 1.723 
1125 795 -8.486644 16.189065 1.245 
1135 795 -8.370668 19.133459 1.054 
1145 795 -5.569406 10.401961 1.041 
1155 795 -2.133027 3.630440 1.167 
1165 795 0.209306 -2.809743 1.134 
1175 795 5.364778 -3.831125 1.263 
1185 795 9.539978 -2.778852 1.030 
1195 795 8.026023 -1.216121 1.149 
1205 795 6.512067 0.346610 1.100 
1215 795 4.998112 1.909341 1.163 
1225 795 3.484156 3.472072 1.003 
1235 795 1.970201 5.034803 2.438 
1245 795 0.456245 6.597535 1.370 
1255 795 0.000000 -0.000000 1.307 
1265 795 0.000000 -0.000000 1.085 
1275 795 0.000000 -0.000000 1.017 
5 785 9.431404 18.536087 1.017 
15 785 12.540771 16.994702 1.017 
25 785 15.650138 15.453318 1.271 
35 785 18.759504 13.911933 1.345 
45 785 9.668814 17.738863 1.027 
55 785 4.656427 17.572792 1.051 
65 785 2.164855 10.331745 1.315 
75 785 -0.282319 5.844264 2.082 
85 785 -0.550990 1.405175 1.508 
95 785 -1.475339 -1.157934 1.162 
105 785 -1.657608 -2.848990 1.407 
115 785 -1.441109 -2.410254 1.355 
125 785 -1.907370 -0.445778 1.059 
135 785 -3.197142 1.804260 1.107 
145 785 -4.613734 2.476201 1.263 
155 785 -5.092622 2.301190 1.725 
165 785 -3.200372 1.299099 1.149 
175 785 -3.938620 1.226718 1.052 
185 785 -5.264845 1.324443 1.027 
195 785 -5.303487 2.322755 1.219 
205 785 -4.977671 2.464070 1.560 
215 785 -5.178271 2.545135 3.053 
225 785 -5.471537 3.176942 2.813 
235 785 -5.428096 3.546958 1.895 
245 785 -5.273099 3.541598 2.183 
255 785 -5.303346 3.276618 1.368 
265 785 -5.646029 3.257654 4.171 
275 785 -5.792509 3.067830 3.240 
285 785 -5.918517 2.555319 4.685 
295 785 -5.738986 2.294829 7.961 
305 785 -5.610376 2.458151 4.552 
315 785 -5.774262 2.967270 1.949 
325 785 -6.144712 3.035792 7.650 
335 785 -6.184849 3.043648 3.962 
345 785 -6.611061 2.971134 1.798 
355 785 -7.506169 2.363701 1.285 
365 785 -7.825341 1.827305 1.462 
375 785 -7.983443 1.800304 3.099 
385 785 -7.782602 2.137865 1.665 
395 785 -7.435200 1.791722 2.311 
405 785 -7.663058 1.239413 1.783 
415 785 -8.076832 1.355317 1.678 
425 785 -8.730243 0.725339 2.584 
435 785 -9.518367 0.287198 2.611 
445 785 -9.697563 -0.052353 2.665 
455 785 -9.397486 -0.179509 6.796 
465 785 -9.240889 -0.296747 4.591 
475 785 -9.141571 0.006504 1.097 
485 785 -9.082835 0.239117 2.235 
495 785 -9.020376 0.111932 2.040 
505 785 -8.984184 -0.361247 1.907 
515 785 -9.107754 0.023793 4.813 
525 785 -8.863391 0.394392 1.598 
535 785 -8.053333 0.991640 1.477 
545 785 -5.206725 2.896276 1.017 
555 785 -6.311406 2.426823 1.630 
565 785 -8.500278 1.600683 1.191 
575 785 -9.352424 0.319603 1.312 
585 785 -9.253322 0.098505 1.525 
595 785 -9.016266 -0.152981 3.952 
605 785 -8.614580 -0.932891 3.137 
615 785 -8.105774 -1.262916 1.741 
625 785 -7.761935 -1.295342 1.695 
635 785 -7.557513 -1.030257 1.382 
645 785 -7.211810 -0.674076 4.443 
655 785 -6.823708 -0.848116 4.405 
665 785 -6.606289 -1.114533 4.257 
675 785 -6.715210 -1.177586 4.745 
685 785 -6.972893 -0.400829 1.685 
695 785 -7.689601 0.678515 2.858 
705 785 -8.165838 0.504172 4.146 
715 785 -8.407401 0.289108 2.871 
725 785 -8.730553 0.409990 1.371 
735 785 -9.132437 1.065749 1.097 
745 785 -9.435182 1.340723 1.115 
755 785 -9.505619 0.853134 1.421 
765 785 -9.347542 -0.012924 3.961 
775 785 -9.410665 -0.115423 1.380 
785 785 -9.459379 -0.203181 1.355 
795 785 -9.527346 -0.067811 2.103 
805 785 -9.401736 0.034921 10.108 
815 785 -9.192977 0.280766 12.667 
825 785 -9.163631 0.562369 2.205 
835 785 -9.392655 0.361219 2.447 
845 785 -9.421825 0.034029 2.012 
855 785 -8.894100 0.430079 1.028 
865 785 -8.868979 1.227962 1.472 
875 785 -9.258487 1.035768 1.016 
885 785 -9.767747 0.518024 1.214 
895 785 -9.589457 -0.124611 1.100 
905 785 -9.377865 -0.581534 1.521 
915 785 -9.261960 -0.674763 1.350 
925 785 -9.052042 -0.648225 1.595 
935 785 -9.157208 -0.277335 1.775 
945 785 -9.281341 0.291425 1.595 
955 785 -9.194544 0.322821 1.744 
965 785 -9.107748 0.354217 2.045 
975 785 -9.291276 0.303980 1.665 
985 785 -9.561191 0.195547 1.093 
995 785 -9.636027 -0.126668 1.199 
1005 785 -9.764446 -0.341486 1.090 
1015 785 -9.691000 -0.281792 1.071 
1025 785 -7.381601 0.600741 1.100 
1035 785 -5.872920 1.210139 1.035 
1045 785 -3.318260 1.726554 1.077 
1055 785 -6.266801 1.082743 1.006 
1065 785 -8.224928 1.023208 1.388 
1075 785 -8.810377 0.822603 1.595 
1085 785 -9.021547 0.502393 1.501 
1095 785 -9.134917 -0.390982 1.108 
1105 785 -9.104207 1.847926 1.246 
1115 785 -8.494559 11.176648 1.723 
1125 785 -7.865079 12.749129 1.245 
1135 785 -7.490483 13.737901 1.054 
1145 785 -5.473996 9.530825 1.041 
1155 785 -1.296656 2.075315 1.167 
1165 785 1.277759 -4.760656 1.134 
1175 785 6.389897 -5.556544 1.263 
1185 785 11.022723 -5.253861 1.030 
1195 785 11.740235 -1.121488 1.149 
1205 785 10.931766 3.184156 1.100 
1215 785 13.719815 3.522582 1.163 
1225 785 16.507865 3.861008 1.003 
1235 785 11.214925 4.803684 2.438 
1245 785 5.921986 5.746359 1.370 
1255 785 -2.207818 5.320164 1.307 
1265 785 0.000000 -0.000000 1.085 
1275 785 0.000000 -0.000000 1.017 
5 775 8.366108 13.768641 1.168 
15 775 15.501823 11.084325 1.168 
25 775 18.087242 11.895354 1.068 
35 775 18.222306 13.365088 1.117 
45 775 12.811812 14.903250 1.063 
55 775 6.053625 14.511595 1.102 
65 775 1.250770 11.056693 1.014 
75 775 0.041490 5.365525 2.213 
85 775 -1.101935 1.040578 1.611 
95 775 -2.245769 -0.500052 1.252 
105 775 -2.710921 -1.613330 1.087 
115 775 -2.473109 -0.765853 1.386 
125 775 -1.729248 4.550466 1.020 
135 775 -2.968416 2.817606 1.014 
145 775 -4.642742 2.488466 1.333 
155 775 -5.396779 1.422712 1.168 
165 775 -3.944687 1.209640 1.032 
175 775 -3.587765 1.066914 1.023 
185 775 -4.461164 1.351775 1.806 
195 775 -4.603197 2.016463 2.389 
205 775 -4.649744 2.271429 2.486 
215 775 -4.944985 2.314315 2.238 
225 775 -5.192554 2.951865 1.854 
235 775 -5.162403 3.430152 1.325 
245 775 -5.316995 3.106807 1.778 
255 775 -5.155680 2.930698 1.062 
265 775 -5.111128 3.151395 2.468 
275 775 -5.325461 3.261994 2.680 
285 775 -5.253988 3.145813 1.801 
295 775 -5.062086 2.657851 2.612 
305 775 -5.439579 2.518619 1.196 
315 775 -5.727043 2.998221 1.441 
325 775 -6.127382 3.155919 5.359 
335 775 -6.182776 2.855055 4.859 
345 775 -6.639051 2.596700 2.376 
355 775 -6.897147 2.036850 1.416 
365 775 -7.054361 1.316063 3.021 
375 775 -7.655002 1.313791 2.779 
385 775 -7.454317 1.844416 1.621 
395 775 -7.120667 1.950334 1.185 
405 775 -7.197746 1.744264 2.060 
415 775 -7.700544 1.380501 2.462 
425 775 -8.520715 0.736833 20.000 
435 775 -9.348326 0.060959 3.328 
445 775 -9.459619 -0.234297 2.646 
455 775 -9.071872 -0.266300 3.037 
465 775 -8.963672 -0.355808 2.802 
475 775 -9.053038 -0.387009 1.466 
485 775 -9.143653 -0.047793 2.863 
495 775 -9.213721 -0.390952 2.033 
505 775 -9.187674 -0.718855 1.612 
515 775 -8.977720 -0.519255 2.060 
525 775 -8.878826 -0.108497 2.603 
535 775 -8.526423 0.511743 4.294 
545 775 -7.760910 1.512023 1.060 
555 775 -7.781399 1.399257 1.607 
565 775 -8.721142 0.939133 2.209 
575 775 -9.155878 0.367689 2.301 
585 775 -8.756529 0.428451 1.696 
595 775 -8.688158 -0.070605 1.339 
605 775 -8.288669 -0.891581 1.969 
615 775 -7.895061 -1.353565 4.810 
625 775 -7.748064 -1.356326 7.907 
635 775 -7.688838 -1.323378 5.618 
645 775 -7.472875 -1.117479 1.382 
655 775 -7.119025 -0.613035 2.880 
665 775 -7.064174 -0.290826 2.733 
675 775 -7.177088 -0.400742 2.191 
685 775 -7.428079 0.152290 1.985 
695 775 -7.626067 0.512303 2.870 
705 775 -7.900739 0.309064 2.810 
715 775 -8.437330 -0.059848 2.544 
725 775 -8.553767 0.152906 3.023 
735 775 -8.945781 0.696174 1.441 
745 775 -9.219235 1.232181 1.000 
755 775 -9.306540 1.137127 1.698 
765 775 -9.398490 0.107187 1.976 
775 775 -9.515905 -0.037621 5.988 
785 775 -9.570316 -0.183381 4.954 
795 775 -9.586029 -0.306672 1.676 
805 775 -9.510014 -0.318077 3.140 
815 775 -9.222174 -0.058169 3.897 
825 775 -9.169897 0.457862 2.591 
835 775 -9.466354 0.432963 2.863 
845 775 -9.616292 0.118816 3.290 
855 775 -9.283615 -0.056879 3.307 
865 775 -9.084416 0.243973 1.115 
875 775 -9.109182 0.382724 1.314 
885 775 -9.131453 0.097163 1.171 
895 775 -8.780972 -0.290192 1.254 
905 775 -8.973358 -0.466050 1.425 
915 775 -9.521678 -0.148484 2.310 
925 775 -9.464337 -0.500656 1.993 
935 775 -9.716566 -0.262756 2.754 
945 775 -9.577556 0.352330 2.513 
955 775 -9.341936 0.433482 1.789 
965 775 -9.102789 0.499900 6.136 
975 775 -9.343719 0.356336 2.958 
985 775 -9.075667 0.353113 1.256 
995 775 -9.151323 0.043501 1.371 
1005 775 -9.139556 0.074250 1.869 
1015 775 -9.409558 0.460635 1.253 
1025 775 -8.543256 0.497730 1.435 
1035 775 -7.447731 0.942797 1.230 
1045 775 -7.547428 0.839749 1.259 
1055 775 -8.192693 0.591027 1.324 
1065 775 -8.630821 0.297480 1.542 
1075 775 -9.219319 0.110681 1.948 
1085 775 -9.315834 0.072951 1.022 
1095 775 -9.231991 -0.420402 1.001 
1105 775 -9.151864 0.479564 1.758 
1115 775 -7.866031 3.480504 1.201 
1125 775 -6.730011 7.937280 3.288 
1135 775 -6.610297 8.342342 1.627 
1145 775 -2.899270 3.408515 1.051 
1155 775 1.010143 -2.014153 1.112 
1165 775 4.639769 -5.404970 1.214 
1175 775 6.758792 -4.379000 1.242 
1185 775 9.405838 -5.490352 1.736 
1195 775 12.867240 -5.567371 1.355 
1205 775 13.282215 -0.565761 1.061 
1215 775 14.189038 3.453496 1.191 
1225 775 15.939937 4.297384 1.448 
1235 775 14.409304 3.196812 2.675 
1245 775 9.733984 3.623121 1.347 
1255 775 3.009114 -1.735459 1.063 
1265 775 -2.268286 -2.624419 1.154 
1275 775 -2.556053 -6.166569 1.229 
5 765 7.300811 9.001196 1.133 
15 765 14.210771 9.938947 1.133 
25 765 18.790034 8.826906 1.069 
35 765 20.276618 11.722931 1.001 
45 765 13.376249 13.484494 1.037 
55 765 5.968457 13.112765 1.086 
65 765 1.004192 9.927588 1.672 
75 765 -0.665206 4.240726 1.334 
85 765 -0.979107 -0.416345 1.021 
95 765 -2.122018 0.290600 1.189 
105 765 -2.785947 -0.981333 1.403 
115 765 -2.279110 1.842504 1.165 
125 765 -1.733145 5.152148 1.243 
135 765 -2.762978 5.920338 1.439 
145 765 -4.700365 4.579983 1.009 
155 765 -5.291567 2.404026 1.188 
165 765 -4.264238 1.655568 1.950 
175 765 -3.236910 0.907110 1.172 
185 765 -3.909454 1.535348 1.033 
195 765 -4.163309 1.838148 3.520 
205 765 -4.535275 2.038744 2.499 
215 765 -4.819346 2.231339 2.117 
225 765 -4.758016 2.988352 1.950 
235 765 -5.014161 3.440095 1.055 
245 765 -5.576386 2.811732 1.325 
255 765 -5.308352 2.981246 1.537 
265 765 -5.059140 3.125270 1.308 
275 765 -5.040707 3.549025 1.949 
285 765 -4.914807 3.527208 2.586 
295 765 -4.778293 2.973000 2.708 
305 765 -5.268781 2.579087 2.488 
315 765 -5.711691 2.996429 2.141 
325 765 -6.100394 3.289018 1.559 
335 765 -6.336464 2.609369 1.734 
345 765 -6.700978 2.472006 1.093 
355 765 -6.626744 1.824133 1.743 
365 765 -6.465586 0.992940 2.660 
375 765 -7.156488 0.813155 2.915 
385 765 -7.225323 1.272025 1.895 
395 765 -6.999768 1.555991 1.424 
405 765 -7.013620 1.556712 1.065 
415 765 -7.389778 1.312359 1.688 
425 765 -8.369176 0.733669 3.042 
435 765 -9.189902 -0.163132 2.324 
445 765 -9.046121 -0.172727 1.517 
455 765 -8.773679 -0.190508 1.773 
465 765 -8.817411 -0.341323 2.334 
475 765 -8.806557 -0.295087 2.310 
485 765 -8.759636 -0.202118 2.376 
495 765 -9.376233 -0.551812 1.647 
505 765 -9.393411 -0.814769 2.481 
515 765 -9.144595 -0.831987 16.919 
525 765 -9.032335 -0.583301 10.875 
535 765 -8.687237 0.105069 2.644 
545 765 -8.262674 0.576654 1.237 
555 765 -8.425409 0.376726 3.554 
565 765 -8.942005 0.277583 4.680 
575 765 -8.794616 0.300204 3.461 
585 765 -8.645970 0.128917 3.808 
595 765 -8.441962 -0.165916 1.877 
605 765 -7.854679 -0.753580 1.476 
615 765 -7.523572 -1.025858 3.064 
625 765 -7.570182 -1.354922 28.104 
635 765 -7.609709 -1.472207 1.563 
645 765 -7.491096 -1.353171 2.263 
655 765 -7.560124 -0.843033 25.247 
665 765 -7.565444 -0.360248 1.030 
675 765 -7.663620 -0.243063 1.287 
685 765 -7.991329 0.277827 2.357 
695 765 -7.919278 0.294495 1.630 
705 765 -8.076718 0.146222 1.986 
715 765 -8.441501 -0.016769 3.478 
725 765 -8.581619 0.127265 5.331 
735 765 -8.835612 0.495091 8.071 
745 765 -9.188952 1.145737 2.522 
755 765 -9.056572 1.040547 2.413 
765 765 -9.419386 -0.003165 2.605 
775 765 -9.515928 -0.508446 3.299 
785 765 -9.356563 -0.380643 1.861 
795 765 -9.420709 -0.805759 1.278 
805 765 -9.503795 -0.466878 1.461 
815 765 -9.197707 -0.139133 1.778 
825 765 -9.202826 0.343161 2.017 
835 765 -9.637502 0.478562 2.145 
845 765 -9.896195 0.161202 3.484 
855 765 -9.737581 -0.103518 2.547 
865 765 -9.293142 -0.002095 1.310 
875 765 -8.996422 0.042362 2.849 
885 765 -9.106657 -0.196868 3.965 
895 765 -9.048072 -0.360231 2.334 
905 765 -9.329111 -0.241141 1.796 
915 765 -9.718299 0.133743 2.203 
925 765 -9.660535 0.351590 2.434 
935 765 -9.247393 0.464805 2.506 
945 765 -9.873771 0.413236 2.232 
955 765 -9.632219 0.496774 2.024 
965 765 -9.118602 0.582309 6.302 
975 765 -9.145253 0.657688 4.349 
985 765 -8.547078 0.537115 3.052 
995 765 -8.554815 0.212689 1.594 
1005 765 -8.393228 0.117555 7.227 
1015 765 -8.788951 0.036022 2.211 
1025 765 -8.651217 0.530620 1.793 
1035 765 -8.295607 0.795143 1.977 
1045 765 -8.559204 0.689428 1.986 
1055 765 -9.395469 0.468227 1.184 
1065 765 -9.479112 0.327401 1.616 
1075 765 -9.433632 -0.070333 2.155 
1085 765 -9.448318 0.155135 1.300 
1095 765 -9.329066 -0.449823 1.027 
1105 765 -9.047610 0.347062 1.966 
1115 765 -8.511264 0.875467 2.030 
1125 765 -7.180704 2.840426 1.500 
1135 765 -6.920133 3.979658 1.781 
1145 765 -4.479014 3.089048 1.295 
1155 765 1.745033 -1.123637 1.123 
1165 765 5.515257 -3.861101 1.031 
1175 765 7.127686 -3.201456 1.435 
1185 765 7.788952 -5.726844 1.191 
1195 765 8.488610 -6.085871 1.651 
1205 765 9.626405 -3.222341 1.173 
1215 765 12.451650 1.602194 1.395 
1225 765 14.806589 3.521522 1.788 
1235 765 15.123285 -0.685311 1.231 
1245 765 15.663919 -9.992064 1.209 
1255 765 6.279089 -8.254400 1.049 
1265 765 -0.492351 -7.517732 1.384 
1275 765 -0.316861 -10.581437 1.394 
5 755 3.617615 7.860199 1.095 
15 755 11.460504 6.584746 1.095 
25 755 19.492825 5.758458 1.462 
35 755 19.359713 7.893278 1.115 
45 755 16.727465 13.694009 1.105 
55 755 6.501527 11.263229 1.692 
65 755 1.042885 8.061833 1.024 
75 755 -0.574166 3.582807 1.151 
85 755 -0.862034 0.166142 1.017 
95 755 -1.998267 1.081252 1.176 
105 755 -2.860974 -0.349335 1.009 
115 755 -2.109036 1.872655 1.200 
125 755 -1.737043 5.753830 1.427 
135 755 -2.992908 6.316271 1.077 
145 755 -4.480167 4.891532 1.346 
155 755 -5.279323 3.072121 1.160 
165 755 -5.108988 1.700227 2.089 
175 755 -4.526200 1.458340 20.000 
185 755 -4.014577 1.588492 1.418 
195 755 -4.091088 1.782137 1.945 
205 755 -4.901255 1.892977 2.320 
215 755 -5.013301 2.525077 2.235 
225 755 -4.960316 3.236975 2.236 
235 755 -5.289132 3.418317 1.923 
245 755 -5.438016 2.907008 2.263 
255 755 -5.461023 3.031795 2.244 
265 755 -5.013805 3.162413 2.255 
275 755 -4.860693 3.866961 1.083 
285 755 -4.660343 3.931840 1.570 
295 755 -4.847529 3.436771 1.961 
305 755 -5.274891 2.775173 1.515 
315 755 -5.624113 2.569668 1.473 
325 755 -5.789834 2.828245 1.581 
335 755 -6.398093 2.573114 3.022 
345 755 -6.546745 2.483780 1.855 
355 755 -6.398894 2.029025 2.204 
365 755 -6.199430 0.985073 3.677 
375 755 -6.519548 0.767600 2.253 
385 755 -6.849385 1.114889 2.350 
395 755 -6.863935 1.568572 1.066 
405 755 -7.014584 1.378217 1.018 
415 755 -7.297314 0.971975 1.031 
425 755 -8.405439 0.535306 1.638 
435 755 -8.954410 0.065671 2.792 
445 755 -8.772020 -0.050365 2.628 
455 755 -8.579117 0.007482 2.574 
465 755 -8.826080 -0.178004 1.905 
475 755 -9.188739 -0.598360 1.442 
485 755 -8.608527 -0.525087 1.401 
495 755 -8.981528 -0.731378 1.138 
505 755 -9.388612 -0.973371 1.967 
515 755 -9.131760 -1.099057 2.668 
525 755 -9.039428 -1.105735 3.216 
535 755 -8.884688 -0.763753 3.792 
545 755 -8.508883 -0.218965 3.005 
555 755 -8.701162 0.112089 2.913 
565 755 -8.990190 0.241970 28.796 
575 755 -8.809240 0.115864 4.645 
585 755 -8.569434 -0.021130 5.273 
595 755 -8.107565 -0.370904 1.858 
605 755 -7.658661 -0.695843 1.308 
615 755 -7.257603 -0.869616 1.515 
625 755 -7.205889 -1.355254 1.397 
635 755 -7.409935 -1.560312 1.566 
645 755 -7.328040 -1.486739 5.302 
655 755 -7.779733 -1.110056 1.720 
665 755 -7.890404 -0.609299 1.089 
675 755 -7.994378 -0.277694 1.297 
685 755 -8.274275 -0.279246 1.651 
695 755 -8.308882 -0.053988 1.505 
705 755 -8.290210 -0.164454 1.784 
715 755 -8.567721 -0.101064 4.488 
725 755 -8.723557 -0.003701 4.606 
735 755 -9.031188 0.237596 2.570 
745 755 -9.218678 0.742283 1.477 
755 755 -9.118934 0.955031 1.674 
765 755 -9.165546 0.281420 1.981 
775 755 -9.134748 -0.266745 4.758 
785 755 -9.142810 -0.577906 2.852 
795 755 -9.315863 -0.655006 1.540 
805 755 -9.555147 -0.646003 2.013 
815 755 -9.285935 -0.460407 1.620 
825 755 -9.467008 -0.065835 2.213 
835 755 -9.821207 0.282427 2.186 
845 755 -9.907620 0.164202 1.772 
855 755 -9.723606 0.122931 2.840 
865 755 -9.596470 0.155909 1.075 
875 755 -9.524741 0.173470 2.813 
885 755 -9.421049 -0.038461 3.512 
895 755 -9.491896 -0.183219 3.460 
905 755 -9.830542 -0.017084 3.180 
915 755 -10.019490 0.133600 2.224 
925 755 -9.632467 0.349836 3.484 
935 755 -9.234616 0.557799 3.306 
945 755 -9.595383 0.485352 2.274 
955 755 -9.469784 0.438009 2.355 
965 755 -9.033050 0.566930 4.015 
975 755 -9.015572 0.838120 1.485 
985 755 -8.912715 0.504985 5.977 
995 755 -8.589794 0.325632 59.187 
1005 755 -8.273573 0.215478 63.232 
1015 755 -8.687903 0.353965 1.740 
1025 755 -8.769939 0.568801 1.790 
1035 755 -8.789030 0.733779 1.323 
1045 755 -9.070741 0.744580 1.272 
1055 755 -9.531462 0.593583 1.395 
1065 755 -9.423077 0.256200 1.026 
1075 755 -9.134781 0.021176 1.666 
1085 755 -9.023419 0.505632 1.122 
1095 755 -8.917361 0.496510 1.227 
1105 755 -8.943357 0.214560 2.104 
1115 755 -8.756024 0.404378 2.736 
1125 755 -9.022076 1.235993 2.604 
1135 755 -9.997619 2.987988 1.062 
1145 755 -5.461274 2.265705 1.006 
1155 755 0.779514 -0.041590 1.022 
1165 755 4.645134 -2.076997 1.066 
1175 755 6.002418 -3.812843 1.154 
1185 755 6.961246 -5.294050 1.327 
1195 755 6.401590 -3.231499 1.346 
1205 755 7.723683 -3.236490 1.198 
1215 755 9.370613 0.552043 1.370 
1225 755 12.628949 2.480768 1.187 
1235 755 15.837265 -4.567434 1.394 
1245 755 16.416315 -12.304607 1.074 
1255 755 8.180951 -12.222580 1.084 
1265 755 3.372873 -9.489575 1.270 
1275 755 3.129563 -11.715318 1.274 
5 745 1.518057 5.070375 1.272 
15 745 2.211511 -0.771003 1.272 
25 745 11.928835 1.567941 1.036 
35 745 18.651805 3.956916 1.018 
45 745 13.362924 12.788199 1.075 
55 745 6.228200 10.502983 1.329 
65 745 1.922404 6.951730 1.427 
75 745 -0.285248 3.782826 1.065 
85 745 -0.076117 0.748202 1.161 
95 745 -0.485849 1.653372 1.022 
105 745 -0.600326 1.244966 1.046 
115 745 -1.938963 1.902805 1.587 
125 745 -1.667056 5.935895 1.054 
135 745 -3.222837 6.712203 1.165 
145 745 -5.295181 5.099171 1.261 
155 745 -5.289352 3.101661 1.784 
165 745 -5.255963 1.883026 12.019 
175 745 -4.787594 1.462138 3.129 
185 745 -4.444405 1.210530 2.013 
195 745 -4.618571 1.155165 1.904 
205 745 -4.998744 1.389385 4.742 
215 745 -4.800058 2.449245 2.482 
225 745 -4.793363 2.949038 1.533 
235 745 -5.270133 3.014196 2.104 
245 745 -5.299647 3.002284 1.547 
255 745 -5.289272 3.076030 2.522 
265 745 -4.925286 3.398146 2.997 
275 745 -4.651042 3.890727 1.639 
285 745 -4.472948 4.016333 1.323 
295 745 -4.830244 3.638237 2.220 
305 745 -5.257011 2.989789 1.521 
315 745 -5.184806 2.429354 1.278 
325 745 -5.417224 2.363267 1.334 
335 745 -6.078851 2.385037 1.452 
345 745 -6.165286 2.579456 1.369 
355 745 -5.886128 2.412770 2.060 
365 745 -5.665945 1.614424 1.721 
375 745 -5.688810 1.085062 2.282 
385 745 -6.062978 1.145157 2.520 
395 745 -7.409085 1.148188 1.212 
405 745 -7.284746 1.176263 1.079 
415 745 -7.379686 0.676953 1.027 
425 745 -8.569384 0.336058 1.650 
435 745 -8.766619 0.366669 1.943 
445 745 -8.648097 0.380757 2.296 
455 745 -8.660149 0.314475 2.079 
465 745 -9.145719 -0.401062 1.636 
475 745 -9.122367 -0.530942 2.672 
485 745 -8.593044 -0.607947 1.307 
495 745 -8.664590 -0.609601 1.144 
505 745 -9.015152 -0.678907 2.296 
515 745 -8.990481 -1.123643 1.855 
525 745 -8.919628 -1.218606 2.337 
535 745 -8.761643 -1.081970 2.314 
545 745 -8.694115 -0.758869 1.901 
555 745 -8.784376 -0.078331 1.487 
565 745 -8.910501 0.220452 2.001 
575 745 -8.866399 0.116603 1.613 
585 745 -8.650314 -0.038835 1.565 
595 745 -8.252083 -0.477018 2.913 
605 745 -7.632277 -0.599175 1.528 
615 745 -7.204563 -0.751160 1.394 
625 745 -7.028791 -1.050431 1.500 
635 745 -7.250121 -1.568357 2.913 
645 745 -7.361550 -1.429780 2.967 
655 745 -7.674867 -0.888091 1.557 
665 745 -7.840056 -0.568140 1.610 
675 745 -8.052472 -0.389776 2.179 
685 745 -8.289585 -0.287697 1.701 
695 745 -8.260657 0.166738 2.516 
705 745 -8.215077 -0.078150 1.013 
715 745 -8.338114 -0.399411 1.377 
725 745 -8.642910 -0.391205 1.999 
735 745 -9.319470 -0.105092 1.595 
745 745 -9.412779 0.266113 1.489 
755 745 -9.194632 0.374124 1.313 
765 745 -9.091957 -0.038452 3.117 
775 745 -9.219639 -0.032710 2.237 
785 745 -9.091372 -0.160351 2.508 
795 745 -9.392376 -0.295909 3.164 
805 745 -9.467408 -0.445459 2.319 
815 745 -9.239816 -0.452931 3.062 
825 745 -9.744024 -0.631581 1.088 
835 745 -10.006856 -0.401827 1.637 
845 745 -10.045113 -0.214105 1.873 
855 745 -9.953280 -0.003013 1.982 
865 745 -9.890508 0.208074 1.808 
875 745 -9.662130 0.181796 4.640 
885 745 -9.583039 0.078434 2.579 
895 745 -9.759336 0.020656 2.473 
905 745 -9.967404 0.133273 2.751 
915 745 -9.982289 0.424568 3.086 
925 745 -9.744857 0.608057 9.735 
935 745 -9.345793 0.771926 2.765 
945 745 -9.399926 0.779737 1.752 
955 745 -9.215827 0.822089 15.555 
965 745 -9.056690 0.972259 20.000 
975 745 -8.885890 1.018551 1.418 
985 745 -9.177835 1.019564 2.482 
995 745 -8.872558 0.922242 2.577 
1005 745 -8.705486 0.865487 1.745 
1015 745 -8.853817 0.747476 1.763 
1025 745 -8.911201 0.632868 1.410 
1035 745 -8.875936 0.627096 1.195 
1045 745 -9.199231 0.767822 1.454 
1055 745 -9.667455 0.718939 1.690 
1065 745 -9.197912 0.391349 1.057 
1075 745 -8.475841 0.187090 1.306 
1085 745 -7.681101 0.326371 1.733 
1095 745 -7.770375 0.559131 1.094 
1105 745 -8.298637 0.769818 1.171 
1115 745 -8.855565 0.553596 1.027 
1125 745 -10.462724 0.635249 1.723 
1135 745 -9.991669 2.186849 1.045 
1145 745 -6.431387 1.690157 1.024 
1155 745 -1.042597 1.091451 1.033 
1165 745 2.446205 0.207907 1.368 
1175 745 4.375422 -0.244976 1.338 
1185 745 4.261943 -1.285003 1.098 
1195 745 4.220125 -1.260197 1.123 
1205 745 5.339527 -3.535018 1.108 
1215 745 6.289575 -0.498108 1.035 
1225 745 8.883415 -2.744061 1.406 
1235 745 15.891508 -10.823242 1.393 
1245 745 15.862889 -11.132279 1.183 
1255 745 10.806946 -10.968361 2.210 
1265 745 7.238097 -11.461419 1.253 
1275 745 6.575987 -12.849199 1.209 
5 735 -0.581502 2.280551 1.022 
15 735 0.394012 -1.239489 1.022 
25 735 7.551270 4.702211 1.082 
35 735 8.774826 8.292300 1.057 
45 735 9.998382 11.882389 1.230 
55 735 4.139349 8.190683 1.002 
65 735 0.694293 5.145622 1.537 
75 735 0.347105 2.708631 1.701 
85 735 0.914061 1.587146 1.436 
95 735 1.534011 0.265080 1.141 
105 735 1.602342 1.653368 1.029 
115 735 -0.958727 2.371222 1.511 
125 735 -1.755413 6.201304 1.911 
135 735 -3.575157 5.741149 1.043 
145 735 -5.268997 3.901025 1.241 
155 735 -5.299382 3.131200 1.158 
165 735 -5.170050 1.706332 2.735 
175 735 -4.800107 1.419183 2.701 
185 735 -4.518483 1.111381 1.817 
195 735 -4.623963 0.946283 1.308 
205 735 -4.759955 1.411414 3.254 
215 735 -4.226156 2.596645 2.687 
225 735 -4.153221 3.007488 2.075 
235 735 -4.887400 2.736291 2.244 
245 735 -5.093891 3.061600 2.929 
255 735 -5.066685 3.340155 2.994 
265 735 -4.896862 3.334589 2.834 
275 735 -4.564792 3.571800 2.766 
285 735 -4.467468 3.738493 4.550 
295 735 -4.803906 3.441525 1.996 
305 735 -5.245547 2.874170 1.112 
315 735 -5.247527 2.317006 1.119 
325 735 -5.588104 2.305973 1.757 
335 735 -5.888842 2.009019 1.232 
345 735 -5.919566 2.558626 1.665 
355 735 -5.671565 2.617544 2.042 
365 735 -5.409480 2.129514 2.541 
375 735 -5.505925 1.144399 3.740 
385 735 -6.088907 0.903403 5.826 
395 735 -7.834421 0.997053 1.826 
405 735 -7.903942 1.078490 1.587 
415 735 -7.874313 0.888443 1.344 
425 735 -8.445700 0.477015 1.588 
435 735 -8.690194 0.367297 2.060 
445 735 -8.493489 0.578086 1.696 
455 735 -8.696485 0.565710 2.305 
465 735 -8.955456 0.083694 3.327 
475 735 -9.040784 -0.242472 2.723 
485 735 -8.607929 -0.272159 1.590 
495 735 -8.324376 -0.022800 1.304 
505 735 -8.679902 0.040184 2.326 
515 735 -8.485529 0.077803 2.346 
525 735 -8.588665 0.126154 2.403 
535 735 -8.984131 -0.191257 1.037 
545 735 -9.280533 -0.274133 1.730 
555 735 -9.292964 -0.462221 1.007 
565 735 -9.038706 -0.143900 1.068 
575 735 -8.684788 0.424050 1.119 
585 735 -8.748940 0.253992 1.141 
595 735 -8.731133 -0.120529 1.562 
605 735 -8.334990 -0.662833 1.637 
615 735 -7.392774 -1.042138 1.227 
625 735 -7.258571 -1.403260 1.441 
635 735 -7.436519 -1.544876 2.169 
645 735 -7.732778 -1.363756 1.381 
655 735 -7.928087 -0.836850 1.606 
665 735 -8.019410 -0.549688 3.166 
675 735 -8.199022 -0.423239 2.135 
685 735 -8.410888 -0.197313 2.465 
695 735 -8.252877 0.135539 1.849 
705 735 -8.183729 -0.075182 1.684 
715 735 -8.234482 -0.421161 1.032 
725 735 -8.552469 -0.731611 1.936 
735 735 -8.923139 -0.305376 1.706 
745 735 -9.383421 0.022116 3.372 
755 735 -9.346448 0.082239 2.781 
765 735 -9.085032 -0.231296 1.690 
775 735 -9.115139 -0.138670 1.684 
785 735 -9.060365 -0.065808 1.355 
795 735 -9.460266 0.005803 2.175 
805 735 -9.172486 -0.180736 9.581 
815 735 -9.130207 -0.283276 4.888 
825 735 -9.523847 -0.361330 4.893 
835 735 -9.928666 -0.560481 2.169 
845 735 -10.079738 -0.746683 1.450 
855 735 -9.802967 -0.328557 1.760 
865 735 -9.614738 0.061909 1.769 
875 735 -9.568170 0.129671 5.243 
885 735 -9.236434 0.098192 6.159 
895 735 -9.146359 -0.007776 4.064 
905 735 -9.637663 0.049584 2.774 
915 735 -9.732072 0.525144 2.729 
925 735 -10.038191 0.975655 1.345 
935 735 -9.425695 1.329972 1.107 
945 735 -8.899526 1.579140 2.029 
955 735 -8.471921 1.722260 45.011 
965 735 -8.486663 1.746727 6.788 
975 735 -8.975277 1.365725 1.213 
985 735 -8.965364 1.272584 5.533 
995 735 -8.704915 1.095673 3.590 
1005 735 -8.844093 1.068014 2.440 