TITLE = "B00226"
VARIABLES = "x", "y", "u", "v", "sn"
ZONE T="Frame 0", I=128, J=80
5 795 0.000000 -0.000000 1.037 
15 795 5.615379 10.495622 1.037 
25 795 5.169979 6.458304 1.367 
35 795 4.724578 2.420987 1.657 
45 795 4.279177 -1.616330 1.067 
55 795 3.490476 -1.448590 1.426 
65 795 0.391599 -7.338480 1.052 
75 795 -0.857076 -7.350048 1.249 
85 795 -2.105752 -7.361616 1.156 
95 795 -4.943361 -5.168840 1.788 
105 795 -10.443012 -2.133806 1.002 
115 795 -15.942662 0.901227 1.284 
125 795 -13.444005 1.102358 1.401 
135 795 -10.945348 1.303488 1.272 
145 795 -9.806110 -0.918415 1.225 
155 795 -8.339601 -0.630844 1.342 
165 795 -6.873092 -0.343273 1.214 
175 795 -5.406583 -0.055701 1.205 
185 795 -5.682144 0.467940 1.070 
195 795 -5.519716 0.953278 20.000 
205 795 -5.217383 1.392769 20.000 
215 795 -5.127986 1.265898 9.017 
225 795 -5.046983 0.589051 2.007 
235 795 -4.917073 0.449293 2.440 
245 795 -4.968418 0.562570 3.681 
255 795 -5.019764 0.675848 3.170 
265 795 -5.071109 0.789125 2.911 
275 795 -5.243223 1.385514 1.697 
285 795 -5.240101 1.068316 1.104 
295 795 -5.267671 1.324826 2.629 
305 795 -5.495161 2.419307 2.237 
315 795 -5.533787 2.765491 2.376 
325 795 -4.971485 2.004798 1.690 
335 795 -4.961333 1.715021 2.804 
345 795 -5.289198 1.490170 1.704 
355 795 -5.659697 1.042963 1.369 
365 795 -5.541234 0.736407 1.083 
375 795 -5.412613 0.612462 2.604 
385 795 -5.651136 0.238585 1.246 
395 795 -5.353373 -0.485983 1.005 
405 795 -5.527679 -0.184323 1.754 
415 795 -5.701985 0.117337 10.253 
425 795 -5.928526 0.483932 3.522 
435 795 -6.693549 0.728719 2.350 
445 795 -7.325263 0.656795 1.124 
455 795 -7.533819 0.463809 1.932 
465 795 -7.344693 0.512113 1.817 
475 795 -7.197034 0.231821 2.039 
485 795 -6.962100 0.095419 1.504 
495 795 -6.812502 0.190466 2.535 
505 795 -6.978412 0.278118 2.361 
515 795 -6.849959 0.257721 1.002 
525 795 -6.725636 0.286850 1.235 
535 795 -6.708975 0.331136 1.251 
545 795 -6.731226 0.262384 2.971 
555 795 -6.613511 0.483600 1.878 
565 795 -6.734371 0.270967 3.495 
575 795 -7.262504 0.146916 3.466 
585 795 -7.418674 0.299337 2.033 
595 795 -6.887735 0.741762 1.214 
605 795 -6.657143 0.546438 1.444 
615 795 -6.800593 0.143894 1.740 
625 795 -6.416244 0.292303 1.895 
635 795 -6.449211 0.331782 1.146 
645 795 -6.482179 0.371261 3.902 
655 795 -6.760075 -0.174234 2.284 
665 795 -7.032893 0.098299 2.556 
675 795 -6.723575 0.029046 2.848 
685 795 -6.668333 -0.227203 3.322 
695 795 -6.948866 -0.488478 1.638 
705 795 -6.715514 -0.614927 1.709 
715 795 -6.608963 -0.644879 2.390 
725 795 -6.543167 -0.569313 1.565 
735 795 -6.513076 -0.199065 1.692 
745 795 -6.914272 -0.002236 1.354 
755 795 -7.085447 -0.164832 1.085 
765 795 -7.124082 -0.315733 20.000 
775 795 -7.222359 -0.438698 3.692 
785 795 -7.129179 -0.222369 2.633 
795 795 -6.753898 -0.618168 2.116 
805 795 -6.749598 -1.164384 5.718 
815 795 -7.082231 -0.929156 2.404 
825 795 -7.450547 -0.531766 2.244 
835 795 -7.548474 -0.493567 4.164 
845 795 -7.789297 -0.371521 5.813 
855 795 -7.642726 -0.441105 2.385 
865 795 -7.496155 -0.510689 2.617 
875 795 -6.726074 -0.094393 20.000 
885 795 -6.651636 0.005045 3.237 
895 795 -6.577198 0.104483 1.932 
905 795 -6.157982 -0.541732 1.036 
915 795 -6.294300 -0.038361 1.194 
925 795 -6.430618 0.465010 1.015 
935 795 -2.614340 12.277906 1.029 
945 795 2.174710 20.888953 1.063 
955 795 7.470650 20.119340 1.488 
965 795 13.471759 22.907582 5.636 
975 795 20.339754 22.432978 1.286 
985 795 33.256744 14.997336 3.208 
995 795 32.937256 12.192099 1.944 
1005 795 22.751611 12.333644 1.083 
1015 795 13.307155 11.037724 1.640 
1025 795 8.421875 7.958208 2.291 
1035 795 7.406044 5.088537 1.137 
1045 795 0.632934 2.201155 1.049 
1055 795 -3.677073 -0.058906 1.801 
1065 795 -4.992524 -0.462569 1.696 
1075 795 -5.307063 -1.840275 2.626 
1085 795 -5.621601 -3.217981 3.808 
1095 795 -5.371572 -6.717270 2.885 
1105 795 -5.037769 -7.318762 2.040 
1115 795 -4.431265 -3.541724 1.046 
1125 795 -3.824762 0.235315 1.147 
1135 795 -9.926610 0.475198 1.137 
1145 795 -15.215540 0.779764 1.023 
1155 795 -19.792396 -1.168971 1.508 
1165 795 -23.317213 -0.255025 1.306 
1175 795 -24.455999 5.024957 1.187 
1185 795 -25.594785 10.304939 1.229 
1195 795 -20.122901 12.013358 1.183 
1205 795 -14.651018 13.721777 1.180 
1215 795 -12.233795 12.581869 1.063 
1225 795 -8.942522 6.274697 1.150 
1235 795 -5.651248 -0.032476 1.208 
1245 795 -2.359975 -6.339648 1.649 
1255 795 -1.740107 -2.119707 1.286 
1265 795 0.000000 -0.000000 1.441 
1275 795 0.000000 -0.000000 1.338 
5 785 13.129929 8.173536 1.037 
15 785 12.322570 6.429870 1.037 
25 785 9.005515 -0.166980 1.367 
35 785 5.688460 -6.763829 1.657 
45 785 5.771499 -2.401617 1.067 
55 785 3.611245 -1.131560 1.426 
65 785 0.183668 -6.653860 1.052 
75 785 -0.621204 -7.237266 1.249 
85 785 -1.198809 -7.196521 1.156 
95 785 -3.503948 -5.656693 1.788 
105 785 -15.684901 -0.203061 1.002 
115 785 -12.546731 1.605293 1.284 
125 785 -9.670205 1.733837 1.401 
135 785 -6.915889 -0.311634 1.272 
145 785 -8.117290 1.768207 1.225 
155 785 -5.378014 -0.476041 1.342 
165 785 -5.049599 -0.090346 1.214 
175 785 -4.721183 0.295349 1.205 
185 785 -5.259827 0.735305 1.070 
195 785 -5.426709 1.099014 20.000 
205 785 -5.184211 1.477806 20.000 
215 785 -5.143962 1.323989 9.017 
225 785 -5.116332 0.674286 2.007 
235 785 -5.009313 0.483510 2.440 
245 785 -4.965310 0.508584 3.681 
255 785 -4.921307 0.533659 3.170 
265 785 -5.186857 0.744360 2.911 
275 785 -5.221367 0.997599 1.697 
285 785 -5.186035 0.937429 1.104 
295 785 -5.212954 1.187551 2.629 
305 785 -5.442488 2.258742 2.237 
315 785 -5.478296 2.627798 2.376 
325 785 -4.959132 1.911706 1.690 
335 785 -4.950019 1.580225 2.804 
345 785 -5.243358 1.314607 1.704 
355 785 -5.596172 0.839687 1.369 
365 785 -5.554922 0.539996 1.083 
375 785 -5.503589 0.469127 2.604 
385 785 -5.804260 0.339654 1.246 
395 785 -5.545161 -0.319761 1.005 
405 785 -5.748382 -0.064681 1.754 
415 785 -5.951604 0.190399 10.253 
425 785 -6.107224 0.538695 3.522 
435 785 -6.798393 0.708636 2.350 
445 785 -7.354696 0.680186 1.124 
455 785 -7.539464 0.490129 1.932 
465 785 -7.342289 0.527343 1.817 
475 785 -7.241996 0.258144 2.039 
485 785 -7.020422 0.131430 1.504 
495 785 -6.828991 0.201083 2.535 
505 785 -6.921380 0.251219 2.361 
515 785 -6.826011 0.262177 1.002 
525 785 -6.702925 0.376751 1.235 
535 785 -6.660963 0.426314 1.251 
545 785 -6.689804 0.368969 2.971 
555 785 -6.657028 0.611042 1.878 
565 785 -6.754300 0.397134 3.495 
575 785 -7.215050 0.240623 3.466 
585 785 -7.414487 0.361454 2.033 
595 785 -6.968833 0.707194 1.214 
605 785 -6.702517 0.533052 1.444 
615 785 -6.839421 0.204442 1.740 
625 785 -6.521077 0.308820 1.895 
635 785 -6.417811 0.526151 1.146 
645 785 -6.575574 0.343715 3.902 
655 785 -6.854246 -0.133431 2.284 
665 785 -7.102096 0.070865 2.556 
675 785 -6.842598 0.028248 2.848 
685 785 -6.772922 -0.173730 3.322 
695 785 -6.986503 -0.406307 1.638 
705 785 -6.715555 -0.535134 1.709 
715 785 -6.672026 -0.575270 2.390 
725 785 -6.613884 -0.473714 1.565 
735 785 -6.587129 -0.164915 1.692 
745 785 -6.951326 -0.072850 1.354 
755 785 -7.100332 -0.267273 1.085 
765 785 -7.110950 -0.362591 20.000 
775 785 -7.198456 -0.462634 3.692 
785 785 -7.008285 -0.412130 2.633 
795 785 -6.784421 -0.625798 2.116 
805 785 -6.780536 -1.140038 5.718 
815 785 -7.078617 -0.913403 2.404 
825 785 -7.388669 -0.551236 2.244 
835 785 -7.509528 -0.541962 4.164 
845 785 -7.826748 -0.540704 5.813 
855 785 -7.873982 -0.428736 2.385 
865 785 -7.672354 -0.741329 2.617 
875 785 -7.093008 -0.316539 20.000 
885 785 -7.022716 0.221223 3.237 
895 785 -6.882343 -0.071188 1.932 
905 785 -6.426932 -0.802669 1.036 
915 785 -6.162462 -0.555242 1.194 
925 785 -6.129619 1.729638 1.015 
935 785 -4.133613 10.550964 1.029 
945 785 2.348157 22.550425 1.063 
955 785 7.490826 21.430591 1.488 
965 785 14.079421 23.859739 5.636 
975 785 19.881746 23.045305 1.286 
985 785 31.371977 16.059200 3.208 
995 785 29.873663 13.688816 1.944 
1005 785 20.983033 13.027913 1.083 
1015 785 10.994669 11.179519 1.640 
1025 785 4.833202 7.499161 2.291 
1035 785 1.886191 3.897627 1.137 
1045 785 -1.886272 0.724688 1.049 
1055 785 -5.878405 -1.354063 1.801 
1065 785 -7.136766 -1.877041 1.696 
1075 785 -7.151667 -2.166691 2.626 
1085 785 -6.918872 -4.346705 3.808 
1095 785 -6.693943 -6.785583 2.885 
1105 785 -6.410256 -7.021592 2.040 
1115 785 -4.625359 -2.866302 1.046 
1125 785 -5.676776 -0.167703 1.147 
1135 785 -9.216643 0.629008 1.137 
1145 785 -13.617403 0.518452 1.023 
1155 785 -18.453142 -0.164869 1.508 
1165 785 -21.907401 1.705078 1.306 
1175 785 -24.708452 7.739214 1.187 
1185 785 -24.146385 13.840027 1.229 
1195 785 -18.335831 12.281944 1.183 
1205 785 -12.525278 10.723861 1.180 
1215 785 -11.428709 8.244033 1.063 
1225 785 -4.305396 -7.859280 1.150 
1235 785 -3.474565 -8.863934 1.208 
1245 785 -2.643734 -9.868588 1.649 
1255 785 -2.452209 -4.114085 1.286 
1265 785 0.367235 1.259928 1.441 
1275 785 0.000000 -0.000000 1.338 
5 775 13.943161 4.322332 1.056 
15 775 13.461427 2.567939 1.056 
25 775 8.970791 -3.332668 1.073 
35 775 6.658612 -4.872594 1.284 
45 775 5.050581 -2.141022 1.308 
55 775 1.699516 0.713385 1.091 
65 775 0.136049 -2.230559 1.123 
75 775 -2.798168 -4.113039 1.048 
85 775 -5.732384 -5.995519 1.148 
95 775 -3.615844 -6.118827 1.306 
105 775 -9.792196 -3.256272 1.091 
115 775 -9.841784 1.843731 1.410 
125 775 -5.560263 0.274268 1.064 
135 775 -3.968860 -0.473934 1.150 
145 775 -4.936869 0.276951 1.175 
155 775 -4.178726 -0.742046 1.038 
165 775 -3.342129 -0.417143 1.048 
175 775 -5.009357 0.299246 2.033 
185 775 -5.582105 0.751113 3.145 
195 775 -5.155959 1.595611 2.967 
205 775 -5.112408 1.844106 3.253 
215 775 -5.178708 1.763582 1.140 
225 775 -4.987211 1.267301 1.155 
235 775 -4.877076 0.537097 2.432 
245 775 -4.474415 0.666857 2.851 
255 775 -5.119896 0.698209 2.598 
265 775 -5.222893 0.835861 20.000 
275 775 -5.135007 0.662836 2.314 
285 775 -5.027262 0.488485 1.106 
295 775 -5.134497 0.732467 2.379 
305 775 -5.246258 1.733626 2.019 
315 775 -5.232659 2.320927 1.812 
325 775 -5.077914 1.990396 1.694 
335 775 -5.047217 1.400615 2.021 
345 775 -4.913924 0.800049 1.579 
355 775 -5.132519 0.475560 1.368 
365 775 -5.658856 0.064805 1.947 
375 775 -5.748199 0.285499 1.180 
385 775 -6.091559 0.553430 1.043 
395 775 -6.144512 0.115308 1.030 
405 775 -6.135846 0.125717 1.451 
415 775 -6.127180 0.136125 1.142 
425 775 -6.914643 0.584336 3.087 
435 775 -7.096612 0.636248 1.778 
445 775 -7.672108 0.645275 2.094 
455 775 -7.634567 0.669930 1.784 
465 775 -7.375033 0.588926 1.483 
475 775 -7.008124 0.362766 1.008 
485 775 -7.180654 0.252460 1.142 
495 775 -7.004008 -0.055156 2.276 
505 775 -6.786815 -0.127885 2.305 
515 775 -6.633666 0.044394 2.058 
525 775 -6.589074 0.388533 2.195 
535 775 -6.592988 0.623254 2.250 
545 775 -6.378661 0.902129 4.283 
555 775 -6.256004 1.028654 2.655 
565 775 -6.601772 0.577182 1.449 
575 775 -7.408012 0.291575 1.262 
585 775 -7.395292 0.262812 1.083 
595 775 -6.892317 0.417661 2.109 
605 775 -6.893150 0.638793 2.391 
615 775 -6.992672 0.261963 2.587 
625 775 -6.799749 0.244647 3.176 
635 775 -6.647499 0.457262 1.364 
645 775 -6.853580 0.303849 2.670 
655 775 -7.005008 -0.123156 2.101 
665 775 -7.124748 -0.083604 1.869 
675 775 -7.140055 0.068206 1.849 
685 775 -7.083962 0.038515 2.948 
695 775 -6.764432 -0.193447 2.136 
705 775 -6.601193 -0.257740 1.678 
715 775 -6.710686 -0.263130 2.481 
725 775 -6.634422 -0.070528 2.186 
735 775 -6.737278 -0.065705 1.884 
745 775 -7.059245 -0.451771 1.983 
755 775 -7.189665 -0.733646 1.503 
765 775 -7.022338 -0.669374 9.071 
775 775 -6.990998 -0.639445 7.847 
785 775 -6.911602 -0.562850 2.840 
795 775 -6.820477 -0.675026 3.249 
805 775 -6.923740 -0.941921 3.815 
815 775 -6.954126 -1.004432 2.814 
825 775 -7.084189 -0.417088 1.859 
835 775 -7.422573 -0.405526 4.613 
845 775 -7.660545 -0.604808 3.704 
855 775 -7.682366 -0.683074 2.408 
865 775 -7.510871 -0.941810 3.213 
875 775 -7.264846 -0.514528 10.833 
885 775 -7.130410 -0.226145 13.347 
895 775 -7.013130 -0.092975 4.270 
905 775 -6.734875 -0.564436 1.165 
915 775 -6.839052 0.507949 1.044 
925 775 -6.470259 3.777248 1.217 
935 775 -7.679761 8.695570 1.996 
945 775 -4.464393 16.363699 1.374 
955 775 3.795265 21.518384 1.118 
965 775 10.647007 22.788096 1.210 
975 775 16.276436 22.624080 1.313 
985 775 26.169458 18.845653 2.891 
995 775 24.785181 16.205663 1.187 
1005 775 16.444370 16.531883 1.066 
1015 775 9.045643 11.199149 1.599 
1025 775 2.760439 6.393008 1.585 
1035 775 -2.342986 2.338552 1.297 
1045 775 -5.707799 -0.636082 2.516 
1055 775 -7.718769 -2.098889 2.364 
1065 775 -7.270946 -2.047275 1.138 
1075 775 -7.327680 -1.822379 3.922 
1085 775 -7.106823 -2.390173 3.284 
1095 775 -7.254759 -6.362603 1.264 
1105 775 -7.210032 -5.379656 15.003 
1115 775 -6.546697 -2.740625 1.833 
1125 775 -7.034020 0.040806 2.490 
1135 775 -8.671700 0.853705 1.138 
1145 775 -10.772027 0.525325 1.019 
1155 775 -17.113887 0.839234 1.201 
1165 775 -23.853214 3.558686 1.031 
1175 775 -25.501268 6.951549 1.080 
1185 775 -22.559867 8.992980 1.170 
1195 775 -21.181607 10.243912 1.064 
1205 775 -15.187128 8.068482 1.110 
1215 775 -10.623622 3.906197 1.101 
1225 775 -7.481112 -3.877909 1.099 
1235 775 -5.214241 -9.613043 1.225 
1245 775 -2.579141 -3.822479 1.587 
1255 775 -2.028066 0.478472 1.651 
1265 775 -0.751097 0.447563 1.023 
1275 775 0.000000 -0.000000 1.004 
5 765 14.756393 0.471129 1.142 
15 765 12.177033 -0.270866 1.142 
25 765 8.350816 1.058533 1.002 
35 765 3.969285 0.314958 1.025 
45 765 -0.848017 0.499194 1.001 
55 765 -0.212213 2.558330 1.243 
65 765 0.028135 1.734268 1.311 
75 765 -0.275327 -3.006719 1.097 
85 765 -0.578788 -7.747706 1.021 
95 765 -4.204051 -7.639570 1.190 
105 765 -3.899491 -6.309483 1.315 
115 765 0.540916 -3.073464 1.024 
125 765 0.518615 -0.653639 1.014 
135 765 -1.021831 -0.636233 1.084 
145 765 -1.756449 -1.214305 1.295 
155 765 -2.979437 -1.008050 1.667 
165 765 -4.397916 -0.222700 1.525 
175 765 -5.740942 0.870652 1.249 
185 765 -5.497915 1.046482 1.633 
195 765 -5.409162 1.631701 3.007 
205 765 -5.243726 1.759695 3.085 
215 765 -5.281638 1.598251 2.044 
225 765 -5.156956 1.158153 2.110 
235 765 -4.544503 0.857493 2.146 
245 765 -4.192511 0.811119 2.906 
255 765 -4.838814 1.052958 3.401 
265 765 -5.250159 0.905447 2.242 
275 765 -5.041457 0.530334 3.053 
285 765 -4.894403 0.478946 1.708 
295 765 -5.071127 0.665554 1.655 
305 765 -5.190887 1.396847 1.525 
315 765 -5.211307 1.908577 1.844 
325 765 -5.156940 1.834716 1.405 
335 765 -5.100845 1.252451 1.366 
345 765 -4.786528 0.522564 1.878 
355 765 -5.001481 0.142354 1.752 
365 765 -5.590628 -0.398051 1.069 
375 765 -5.989088 -0.024067 1.569 
385 765 -6.303839 0.388335 1.242 
395 765 -6.739660 0.349653 2.017 
405 765 -6.974945 0.183946 1.261 
415 765 -6.633478 0.185608 2.150 
425 765 -6.853218 0.402928 1.555 
435 765 -6.780555 0.559497 1.894 
445 765 -7.211855 0.676023 3.727 
455 765 -7.236250 0.613401 1.550 
465 765 -7.235763 0.455689 1.082 
475 765 -7.058926 0.128382 1.067 
485 765 -7.245897 0.316231 1.418 
495 765 -6.857833 0.102773 7.871 
505 765 -6.611375 0.011870 20.000 
515 765 -6.505107 0.128664 20.000 
525 765 -6.570412 0.504955 1.978 
535 765 -6.295804 0.661768 1.608 
545 765 -6.244230 0.627719 2.170 
555 765 -6.374199 0.993194 1.529 
565 765 -6.414925 0.695616 1.763 
575 765 -6.735365 0.360094 1.166 
585 765 -6.950092 0.186912 1.288 
595 765 -6.961308 -0.078861 1.960 
605 765 -6.926325 0.011824 2.595 
615 765 -7.080218 0.257556 1.936 
625 765 -7.062831 0.103429 3.339 
635 765 -7.097098 0.218628 2.541 
645 765 -7.126002 0.289810 2.573 
655 765 -7.075880 -0.068270 2.017 
665 765 -7.014320 -0.194545 1.909 
675 765 -7.227806 -0.023237 1.677 
685 765 -7.156875 -0.059919 2.418 
695 765 -6.677379 -0.086466 3.920 
705 765 -6.652935 -0.095602 5.391 
715 765 -6.868393 -0.155015 3.084 
725 765 -6.987150 -0.004185 2.876 
735 765 -6.981221 -0.119872 1.849 
745 765 -7.222809 -0.800538 2.077 
755 765 -6.970023 -0.940182 1.240 
765 765 -6.872042 -0.735858 4.813 
775 765 -6.914519 -0.557194 2.602 
785 765 -6.897081 -0.449037 1.785 
795 765 -7.015966 -0.581653 2.805 
805 765 -7.047977 -0.819531 2.668 
815 765 -6.920708 -0.937614 1.730 
825 765 -6.902503 -0.631276 1.987 
835 765 -7.029633 -0.436569 2.107 
845 765 -7.588136 -0.496684 2.652 
855 765 -7.259367 -0.720230 1.904 
865 765 -7.121491 -0.953695 2.435 
875 765 -7.045250 -0.745833 2.184 
885 765 -7.055771 -0.615202 1.335 
895 765 -7.106082 -0.872564 3.700 
905 765 -7.193494 -0.455435 2.030 
915 765 -7.633213 1.337832 1.532 
925 765 -9.238183 5.047684 1.028 
935 765 -9.942872 10.544888 4.953 
945 765 -6.438603 16.598749 2.577 
955 765 -0.084336 20.394944 2.737 
965 765 7.214593 21.716454 1.064 
975 765 14.746192 21.746912 22.530 
985 765 19.110827 20.362297 160.853 
995 765 18.526678 17.523128 2.627 
1005 765 11.909768 15.646275 1.007 
1015 765 5.931132 9.866606 1.825 
1025 765 0.353765 4.416447 2.077 
1035 765 -4.224470 0.397882 16.180 
1045 765 -6.820627 -1.393346 20.000 
1055 765 -7.521987 -2.417136 6.870 
1065 765 -7.091116 -1.453632 1.647 
1075 765 -7.019267 -1.038081 1.991 
1085 765 -7.387673 -1.344300 3.856 
1095 765 -7.199059 -3.927949 2.309 
1105 765 -6.881466 -3.543770 2.381 
1115 765 -6.994257 -1.642091 1.286 
1125 765 -7.759613 0.018486 1.972 
1135 765 -9.316378 -0.008245 9.272 
1145 765 -7.858769 -0.562353 1.198 
1155 765 -16.097638 0.956182 1.007 
1165 765 -25.799026 5.412294 1.168 
1175 765 -22.065865 6.096179 1.097 
1185 765 -20.973349 4.145933 1.280 
1195 765 -21.648701 2.445893 1.036 
1205 765 -19.649206 1.454187 1.104 
1215 765 -15.005414 -0.303515 1.071 
1225 765 -10.032832 -1.078003 1.171 
1235 765 -5.644736 0.432484 1.123 
1245 765 -1.589873 3.962648 2.244 
1255 765 0.379931 2.065671 1.152 
1265 765 0.966190 1.842731 1.043 
1275 765 1.080687 -0.512194 1.081 
5 755 15.907108 -4.034871 1.929 
15 755 12.806268 -3.335567 1.929 
25 755 6.715849 2.563340 2.708 
35 755 3.724683 3.029848 1.017 
45 755 1.100669 3.003976 1.251 
55 755 -0.166873 1.890958 1.002 
65 755 -0.714610 -0.594035 1.026 
75 755 1.819885 -2.247066 1.461 
85 755 4.354379 -3.900096 1.380 
95 755 0.689504 -5.796873 1.316 
105 755 -2.975371 -7.693651 2.989 
115 755 0.698160 -1.882985 1.088 
125 755 -0.393880 -0.630884 1.429 
135 755 -2.174786 -0.814317 1.545 
145 755 -4.196153 -1.198588 1.013 
155 755 -4.678228 0.225185 1.118 
165 755 -4.664739 0.561971 1.214 
175 755 -6.470063 1.418247 2.670 
185 755 -5.858731 1.219899 1.010 
195 755 -5.636719 1.477800 5.430 
205 755 -5.456643 1.629553 9.010 
215 755 -5.447722 1.445286 3.281 
225 755 -5.230197 1.100108 1.928 
235 755 -4.507795 0.909777 1.081 
245 755 -4.133744 0.876981 1.960 
255 755 -4.893479 0.866786 2.563 
265 755 -5.587518 0.239680 1.416 
275 755 -4.947906 0.397832 1.483 
285 755 -4.761544 0.469407 1.065 
295 755 -4.956156 0.743167 1.092 
305 755 -5.293404 1.247370 1.140 
315 755 -5.434780 1.759343 1.102 
325 755 -5.357585 1.167811 1.177 
335 755 -5.241474 0.962365 1.305 
345 755 -4.910483 0.477151 2.505 
355 755 -5.010036 -0.098867 2.278 
365 755 -5.703036 -0.454225 1.377 
375 755 -6.065962 -0.564104 1.108 
385 755 -6.574790 -0.261663 2.456 
395 755 -7.281654 -0.028157 2.244 
405 755 -6.868130 0.065638 2.050 
415 755 -6.692780 0.000653 1.742 
425 755 -6.435980 0.020065 2.495 
435 755 -6.085980 0.130593 1.586 
445 755 -6.339250 0.278684 4.226 
455 755 -6.743989 0.350348 2.619 
465 755 -6.979283 0.227648 1.112 
475 755 -7.019158 -0.136408 1.592 
485 755 -6.961322 -0.181936 2.143 
495 755 -6.672722 0.147432 3.534 
505 755 -6.542776 0.140734 10.143 
515 755 -6.494749 0.220589 1.057 
525 755 -6.750048 0.374158 1.243 
535 755 -6.194862 0.638973 1.067 
545 755 -6.545701 0.625357 1.786 
555 755 -6.607337 0.815896 1.104 
565 755 -6.637820 0.936973 1.605 
575 755 -6.562633 0.595034 1.355 
585 755 -6.403573 0.277118 1.384 
595 755 -6.564876 0.054275 2.130 
605 755 -6.643508 -0.165467 1.897 
615 755 -6.888750 -0.068579 1.157 
625 755 -7.130728 0.044302 1.259 
635 755 -7.204943 0.115730 1.139 
645 755 -7.335374 0.059885 2.140 
655 755 -6.828748 -0.088359 1.999 
665 755 -6.322968 -0.220459 1.966 
675 755 -6.658425 0.025987 1.335 
685 755 -7.079332 -0.349994 1.941 
695 755 -6.801752 -0.422520 2.524 
705 755 -6.850042 -0.621466 3.643 
715 755 -6.981024 -0.327136 66.546 
725 755 -7.249822 0.041191 10.986 
735 755 -7.130247 -0.128887 2.449 
745 755 -7.103970 -0.705001 1.461 
755 755 -6.797050 -0.641763 1.674 
765 755 -6.760687 -0.483646 3.023 
775 755 -6.904589 -0.302293 7.264 
785 755 -6.968049 -0.335333 2.726 
795 755 -7.013381 -0.633422 3.702 
805 755 -7.054303 -0.804063 3.028 
815 755 -6.930115 -0.996278 2.071 
825 755 -6.742879 -0.802470 1.932 
835 755 -7.044722 -0.551320 2.106 
845 755 -7.362624 -0.739303 2.513 
855 755 -7.215739 -0.696719 2.033 
865 755 -7.026464 -0.854315 4.008 
875 755 -6.919771 -0.915671 4.108 
885 755 -6.924916 -0.936409 2.599 
895 755 -7.147484 -1.221327 2.347 
905 755 -7.605039 -0.657105 3.845 
915 755 -8.199955 0.991398 2.085 
925 755 -9.617862 4.581945 1.152 
935 755 -9.241130 9.592011 4.751 
945 755 -8.864397 14.602077 3.447 
955 755 -3.309407 18.141232 3.826 
965 755 3.217254 19.214201 1.265 
975 755 9.394424 19.625067 9.372 
985 755 12.161720 18.291549 2.176 
995 755 11.411727 16.210644 1.039 
1005 755 5.152845 13.821585 1.112 
1015 755 1.250272 7.496365 1.234 
1025 755 -2.840512 1.523027 8.018 
1035 755 -6.750447 -1.045903 27.965 
1045 755 -7.897363 -2.081395 13.172 
1055 755 -7.630326 -1.988723 3.048 
1065 755 -7.210498 -1.575005 1.587 
1075 755 -6.866023 -1.231839 2.531 
1085 755 -7.224189 -1.456941 1.637 
1095 755 -7.143358 -1.493295 1.784 
1105 755 -6.552900 -1.707884 1.832 
1115 755 -6.943732 -1.383355 1.786 
1125 755 -7.524402 -0.979802 1.379 
1135 755 -8.626433 -1.172259 1.277 
1145 755 -7.196784 -2.025741 1.375 
1155 755 -8.407340 -0.250154 1.227 
1165 755 -11.222939 3.109092 1.436 
1175 755 -11.581744 2.777480 1.028 
1185 755 -16.807236 -4.627052 1.061 
1195 755 -20.162594 -6.373028 1.054 
1205 755 -22.231352 -6.408299 1.033 
1215 755 -16.794451 -3.764855 1.084 
1225 755 -10.214974 -0.627643 1.109 
1235 755 -5.657063 1.767132 1.556 
1245 755 -1.434567 2.710001 1.115 
1255 755 2.787929 3.652870 1.243 
1265 755 2.830038 0.666641 1.358 
1275 755 1.811177 0.265865 1.350 
5 745 12.229749 -2.501027 2.479 
15 745 14.294439 -3.946248 2.479 
25 745 7.307220 2.254187 1.055 
35 745 3.888604 3.411342 1.069 
45 745 2.906949 4.188110 1.261 
55 745 -0.308137 0.409374 1.055 
65 745 -2.545417 -1.045887 1.135 
75 745 -0.361468 -2.215808 1.345 
85 745 1.244185 -4.220141 1.001 
95 745 -1.003206 -6.254186 1.003 
105 745 -2.355145 -7.672331 1.667 
115 745 -0.769086 -2.138987 1.238 
125 745 -1.306374 -0.608129 1.012 
135 745 -3.072831 -1.002929 1.047 
145 745 -4.839287 -1.397728 1.024 
155 745 -5.053136 0.224563 1.180 
165 745 -5.094511 1.361159 1.002 
175 745 -5.763962 1.371495 1.234 
185 745 -6.219547 1.393316 1.255 
195 745 -5.421535 1.142643 1.687 
205 745 -5.446805 1.284272 10.356 
215 745 -5.571715 1.132462 1.790 
225 745 -5.401178 0.965621 1.655 
235 745 -4.707092 1.001372 1.087 
245 745 -4.443013 1.012723 1.220 
255 745 -4.948143 0.680613 1.432 
265 745 -5.180854 0.397029 2.998 
275 745 -5.413565 0.113445 2.963 
285 745 -4.497836 0.925796 2.073 
295 745 -4.711338 0.976219 1.341 
305 745 -5.395921 1.097893 1.102 
315 745 -5.519388 1.676727 1.636 
325 745 -5.359889 1.434831 1.144 
335 745 -5.334570 1.295584 1.570 
345 745 -5.576756 0.404079 2.703 
355 745 -5.828008 -0.304427 3.073 
365 745 -5.958247 -0.324702 1.369 
375 745 -6.269746 -0.576096 1.119 
385 745 -6.673680 -0.350514 1.347 
395 745 -7.289905 -0.013950 2.409 
405 745 -7.021908 0.180257 2.089 
415 745 -6.629879 -0.172991 1.761 
425 745 -6.077566 -0.108547 1.640 
435 745 -5.833728 -0.016924 2.960 
445 745 -5.889566 0.004499 6.273 
455 745 -6.379205 0.035617 20.000 
465 745 -7.203400 -0.043156 3.056 
475 745 -7.088760 -0.160216 3.494 
485 745 -6.686822 -0.015799 3.571 
495 745 -6.519814 0.277063 1.878 
505 745 -6.559550 0.341370 2.501 
515 745 -6.817465 0.274567 2.382 
525 745 -6.786430 0.351984 1.005 
535 745 -6.671412 0.701121 1.207 
545 745 -6.847172 0.622996 1.256 
555 745 -7.093454 0.875674 1.248 
565 745 -6.803108 0.692007 1.693 
575 745 -6.570182 0.030920 2.154 
585 745 -6.317434 -0.044632 2.812 
595 745 -6.356829 0.106631 1.765 
605 745 -6.681398 -0.010117 2.628 
615 745 -6.888745 0.197742 1.325 
625 745 -7.068977 0.186635 1.060 
635 745 -6.826884 -0.097705 1.579 
645 745 -6.925625 -0.255537 3.264 
655 745 -6.583182 -0.098521 4.965 
665 745 -6.343649 -0.159028 3.203 
675 745 -6.457896 -0.163754 2.078 
685 745 -6.569143 -0.387555 1.473 
695 745 -6.868846 -0.835506 1.593 
705 745 -6.698929 -0.706490 1.206 
715 745 -6.602505 -0.331532 1.383 
725 745 -6.952594 -0.058748 1.583 
735 745 -7.137882 -0.128438 3.356 
745 745 -6.989828 -0.106226 1.619 
755 745 -6.681789 -0.376325 3.192 
765 745 -6.799936 -0.385722 2.129 
775 745 -6.965897 -0.318748 1.541 
785 745 -7.025903 -0.298407 2.519 
795 745 -6.880533 -0.467569 2.063 
805 745 -6.955324 -0.620238 1.112 
815 745 -7.026571 -0.683439 1.725 
825 745 -6.936369 -0.514388 2.499 
835 745 -7.036172 -0.438423 1.800 
845 745 -7.097729 -0.603052 2.594 
855 745 -7.088823 -0.767145 5.610 
865 745 -7.040682 -0.739985 2.124 
875 745 -7.054302 -0.663839 9.968 
885 745 -7.203074 -0.762432 1.931 
895 745 -7.409555 -1.290258 1.237 
905 745 -7.304769 -1.562543 6.306 
915 745 -7.422466 -0.803434 2.800 
925 745 -8.735673 2.515324 1.137 
935 745 -8.947461 6.511206 2.225 
945 745 -9.159249 10.507088 2.240 
955 745 -5.856660 13.291953 1.391 
965 745 -0.996830 14.606366 1.290 
975 745 3.227468 15.251208 1.622 
985 745 3.076863 12.261823 1.028 
995 745 1.398729 9.113537 1.032 
1005 745 -2.949118 10.577370 1.076 
1015 745 -4.134847 4.878347 1.095 
1025 745 -6.167391 -0.516464 2.741 
1035 745 -8.511249 -2.269483 4.900 
1045 745 -8.357488 -2.317136 3.136 
1055 745 -7.677075 -1.680396 3.644 
1065 745 -6.995967 -1.692350 2.939 
1075 745 -6.844161 -1.756381 3.283 
1085 745 -7.060704 -1.569583 3.788 
1095 745 -7.054099 -1.480862 2.312 
1105 745 -6.716254 -1.457148 2.265 
1115 745 -6.595587 -1.346763 3.885 
1125 745 -6.889460 -1.418844 1.371 
1135 745 -7.495080 -2.122747 1.022 
1145 745 -6.534799 -3.489129 1.027 
1155 745 -9.209941 -2.024611 1.133 
1165 745 -12.431821 -3.750536 1.126 
1175 745 -11.287226 -3.827689 1.066 
1185 745 -16.090886 -4.521320 1.098 
1195 745 -18.846235 -7.028457 1.205 
1205 745 -20.104399 -3.915973 1.096 
1215 745 -16.447281 -2.442304 1.737 
1225 745 -11.287365 0.340984 1.739 
1235 745 -7.244508 1.648634 1.181 
1245 745 -1.693085 1.696405 1.216 
1255 745 3.858338 1.744176 1.155 
1265 745 3.826762 0.156963 1.201 
1275 745 2.541666 1.043924 1.212 
5 735 8.552390 -0.967184 1.003 
15 735 9.500796 -0.410075 1.003 
25 735 6.609110 2.977102 1.205 
35 735 4.052525 3.792836 1.271 
45 735 1.329239 3.303775 1.130 
55 735 -1.638873 1.885279 1.427 
65 735 -4.376223 -1.497740 1.268 
75 735 -2.542820 -2.184550 1.130 
85 735 -1.866009 -4.540186 1.216 
95 735 -5.008853 -7.190130 1.217 
105 735 -5.488661 -8.111709 1.095 
115 735 -0.598116 -3.601956 1.074 
125 735 -2.696718 -0.813167 1.106 
135 735 -4.122749 -1.075974 1.341 
145 735 -4.898979 -0.617801 3.001 
155 735 -4.893294 0.051223 1.148 
165 735 -4.497903 1.627907 1.565 
175 735 -4.968259 1.574525 1.233 
185 735 -5.341652 1.224615 1.238 
195 735 -5.244278 1.073184 3.057 
205 735 -5.317870 1.011875 17.988 
215 735 -5.228329 0.419049 2.349 
225 735 -5.071718 0.225038 2.279 
235 735 -4.661804 0.968132 10.433 
245 735 -4.639883 0.994855 1.212 
255 735 -4.533432 -0.043118 1.425 
265 735 -4.559243 0.432462 1.689 
275 735 -4.585055 0.908041 2.501 
285 735 -4.178347 1.043939 2.246 
295 735 -4.093030 1.082371 1.203 
305 735 -4.533542 1.208848 1.574 
315 735 -5.143140 1.369695 1.594 
325 735 -5.648085 1.393367 1.174 
335 735 -6.039007 1.401756 1.147 
345 735 -6.295292 0.978883 1.284 
355 735 -6.577053 0.258084 1.159 
365 735 -6.526769 -0.079820 1.386 
375 735 -6.473529 -0.588088 1.377 
385 735 -6.937588 -0.180308 1.015 
395 735 -7.391450 0.247975 1.429 
405 735 -7.318817 0.589830 1.361 
415 735 -6.989099 0.416478 1.751 
425 735 -6.283614 0.138105 1.516 
435 735 -5.795679 -0.061210 1.980 
445 735 -5.794180 0.014989 4.967 
455 735 -6.289994 0.165845 14.528 
465 735 -7.202964 0.146359 10.454 
475 735 -7.102577 0.042262 4.445 
485 735 -6.463891 0.115872 1.953 
495 735 -6.382843 0.336085 4.241 
505 735 -6.446164 0.429674 3.088 
515 735 -6.730302 0.240395 1.674 
525 735 -6.700970 0.521207 1.920 
535 735 -6.970801 0.672095 1.810 
545 735 -6.969660 0.715636 2.272 
555 735 -6.982058 0.684638 1.302 
565 735 -6.968395 0.447041 1.276 
575 735 -6.626450 -0.089907 2.687 
585 735 -6.317046 -0.227016 1.701 
595 735 -6.378649 -0.148657 2.054 
605 735 -6.709604 -0.049293 1.560 
615 735 -6.876633 0.077699 2.373 
625 735 -6.726792 0.045408 1.038 
635 735 -6.448825 -0.311141 1.187 
645 735 -6.525544 -0.268394 1.006 
655 735 -6.643816 -0.153948 3.457 
665 735 -6.649621 -0.117849 1.845 
675 735 -6.446462 -0.230536 2.621 
685 735 -6.682986 -0.099305 1.600 
695 735 -6.817181 -0.436092 1.169 
705 735 -6.547816 -0.791514 2.060 
715 735 -6.531760 -0.434321 1.415 
725 735 -6.807690 -0.195396 1.505 
735 735 -6.893285 -0.230433 4.149 
745 735 -6.586250 -0.175561 2.323 
755 735 -6.485076 -0.171512 3.798 
765 735 -6.750623 -0.312367 2.802 
775 735 -6.968999 -0.429714 2.434 
785 735 -6.917031 -0.447940 3.058 
795 735 -6.841912 -0.453006 2.384 
805 735 -6.988529 -0.534718 1.116 
815 735 -7.058317 -0.558266 1.292 
825 735 -6.967212 -0.354174 2.916 
835 735 -7.042627 -0.409543 3.304 
845 735 -6.994121 -0.679418 2.482 
855 735 -6.904982 -0.740226 5.738 
865 735 -6.900830 -0.640999 1.368 
875 735 -6.895116 -0.453055 3.999 
885 735 -6.847826 -0.707063 2.407 
895 735 -6.973623 -0.963170 2.059 
905 735 -6.929890 -1.444779 1.778 
915 735 -6.888815 -1.314093 1.456 
925 735 -8.151935 0.851191 1.238 
935 735 -8.239951 2.345091 1.206 
945 735 -8.630437 4.999585 1.308 