TITLE = "B00221"
VARIABLES = "x", "y", "u", "v", "sn"
ZONE T="Frame 0", I=128, J=80
5 795 0.000000 -0.000000 1.774 
15 795 5.546488 0.680666 1.774 
25 795 10.852334 -4.074680 1.378 
35 795 11.730613 -6.895975 1.008 
45 795 -4.697299 -2.162673 1.032 
55 795 -7.374379 -4.152877 1.013 
65 795 -6.023786 -4.611631 1.344 
75 795 -4.673192 -5.070385 1.122 
85 795 -2.336956 -4.167261 1.170 
95 795 -0.000719 -3.264138 1.915 
105 795 2.335517 -2.361015 1.046 
115 795 4.671754 -1.457892 1.328 
125 795 1.974871 0.526345 1.133 
135 795 -1.088037 2.295848 1.057 
145 795 -4.451959 4.256783 1.250 
155 795 -5.350833 4.089368 1.008 
165 795 -6.249707 3.921953 1.024 
175 795 -8.932461 0.627036 27.372 
185 795 -10.163711 0.705236 20.000 
195 795 -9.618356 0.617317 1.867 
205 795 -8.604351 0.532878 1.362 
215 795 -7.590347 0.448438 3.642 
225 795 -7.460945 0.382889 1.359 
235 795 -7.860501 -0.218745 3.216 
245 795 -8.658785 -0.971904 1.660 
255 795 -9.060820 -1.381939 1.657 
265 795 -9.776015 -2.132459 1.521 
275 795 -17.377023 -3.083287 1.063 
285 795 -17.402267 -3.383333 1.025 
295 795 -17.427510 -3.683380 1.047 
305 795 -16.584637 -3.390236 1.499 
315 795 -16.848763 -8.780639 1.124 
325 795 -14.234993 -6.501619 1.353 
335 795 -11.621224 -4.222598 9.061 
345 795 -9.007454 -1.943577 4.427 
355 795 -8.835525 -2.099192 1.999 
365 795 -9.072137 -2.349277 2.773 
375 795 -9.640636 -2.776515 1.963 
385 795 -9.981774 -3.272928 2.169 
395 795 -10.013290 -3.367066 2.162 
405 795 -9.871423 -3.302853 2.838 
415 795 -9.798257 -3.208458 2.053 
425 795 -9.725090 -3.114063 2.954 
435 795 -9.705619 -2.436356 2.032 
445 795 -9.737989 -2.637472 20.000 
455 795 -10.378065 -2.555215 7.655 
465 795 -10.681519 -2.505641 1.145 
475 795 -10.771163 -2.531142 3.214 
485 795 -10.888481 -2.667422 2.801 
495 795 -10.671529 -2.748495 2.098 
505 795 -10.454578 -2.829569 1.020 
515 795 -10.237626 -2.910642 1.026 
525 795 -9.935716 -2.496247 1.836 
535 795 -9.637433 -1.635727 2.667 
545 795 -9.441924 -1.966324 2.005 
555 795 -9.533346 -2.028007 2.977 
565 795 -9.729718 -1.633114 1.704 
575 795 -9.805079 -1.447218 1.874 
585 795 -9.709436 -1.840495 3.170 
595 795 -9.446427 -1.940018 1.948 
605 795 -8.850534 -1.788944 2.484 
615 795 -9.085316 -2.167122 2.962 
625 795 -9.348324 -2.420173 6.584 
635 795 -9.491516 -2.528675 4.276 
645 795 -9.731934 -2.429945 2.938 
655 795 -9.707610 -2.177230 2.350 
665 795 -9.455948 -2.253156 1.728 
675 795 -9.204286 -2.329083 1.780 
685 795 -8.952624 -2.405010 2.247 
695 795 -8.968892 -2.540965 2.122 
705 795 -8.732965 -2.257217 1.312 
715 795 -8.928402 -2.075028 1.044 
725 795 -9.272253 -2.053038 1.019 
735 795 -9.467797 -2.093977 2.822 
745 795 -9.509942 -2.080750 3.899 
755 795 -9.124830 -2.090482 2.119 
765 795 -9.241021 -2.541927 3.313 
775 795 -9.604546 -2.572146 14.277 
785 795 -9.968072 -2.602366 3.345 
795 795 -9.561204 -2.916757 1.972 
805 795 -9.227630 -3.434269 2.998 
815 795 -9.474917 -3.479247 2.939 
825 795 -9.500723 -2.945782 1.676 
835 795 -9.413160 -3.047410 1.312 
845 795 -9.518945 -3.030985 6.580 
855 795 -9.501308 -2.474033 3.138 
865 795 -9.453138 -1.838996 2.556 
875 795 -9.490739 -1.268098 2.271 
885 795 -9.542566 -1.156946 4.645 
895 795 -9.224645 -1.121901 3.360 
905 795 -7.711150 -0.344444 1.276 
915 795 -8.064702 -0.790077 1.297 
925 795 -8.418253 -1.235710 1.408 
935 795 -8.771805 -1.681343 1.427 
945 795 -7.637058 -0.446762 1.144 
955 795 -7.222577 -0.471062 1.916 
965 795 -6.808095 -0.495362 1.968 
975 795 -7.211654 -1.727378 2.880 
985 795 -7.442381 -1.635660 7.352 
995 795 -7.553796 -1.306369 9.177 
1005 795 -7.500856 -1.119967 1.303 
1015 795 -7.162468 -0.998615 1.103 
1025 795 -6.824080 -0.877263 1.169 
1035 795 -7.065820 -0.350928 2.266 
1045 795 -6.763985 -0.749161 1.678 
1055 795 -6.959206 -1.021771 1.054 
1065 795 -7.014081 -1.225526 1.127 
1075 795 -6.927744 -0.763468 2.213 
1085 795 -6.710031 -0.562460 6.840 
1095 795 -6.651504 -0.281971 2.325 
1105 795 -6.592976 -0.001482 20.000 
1115 795 -7.291681 0.971071 1.104 
1125 795 -3.668540 1.792713 1.051 
1135 795 -0.045398 2.614356 1.429 
1145 795 0.942877 4.650236 1.239 
1155 795 -1.665658 22.606385 1.459 
1165 795 -0.890119 22.081094 1.046 
1175 795 -0.114581 21.555803 1.344 
1185 795 0.952788 19.135471 1.019 
1195 795 2.020158 16.715139 1.034 
1205 795 3.087528 14.294806 1.140 
1215 795 4.206301 10.871301 1.032 
1225 795 5.802320 7.881100 1.209 
1235 795 7.398338 4.890898 1.187 
1245 795 8.994356 1.900696 1.075 
1255 795 10.590374 -1.089505 1.364 
1265 795 12.186393 -4.079707 1.130 
1275 795 12.469757 -3.578086 1.255 
5 785 10.637526 0.037139 1.774 
15 785 15.235777 -0.937896 1.774 
25 785 16.363997 -4.552736 1.378 
35 785 10.094428 -6.111539 1.008 
45 785 -7.013229 -0.674544 1.032 
55 785 -15.753238 -1.961881 1.013 
65 785 -21.182340 -3.890789 1.344 
75 785 -17.110739 -3.123995 1.122 
85 785 -5.359714 -2.942923 1.170 
95 785 5.663436 -2.765536 1.915 
105 785 6.560525 -1.800346 1.046 
115 785 4.374582 -0.836179 1.328 
125 785 2.445673 1.072301 1.133 
135 785 0.906777 2.513204 1.057 
145 785 -0.892576 4.023178 1.250 
155 785 -2.948216 4.298127 1.008 
165 785 -5.445822 1.636291 1.024 
175 785 -8.487990 0.808195 27.372 
185 785 -9.695937 0.677204 20.000 
195 785 -9.165272 0.558771 1.867 
205 785 -8.199006 0.546117 1.362 
215 785 -7.384515 0.484292 3.642 
225 785 -7.399693 0.409837 1.359 
235 785 -7.854547 -0.116896 3.216 
245 785 -8.578898 -0.899947 1.660 
255 785 -9.064617 -1.521338 1.657 
265 785 -9.747257 -2.093603 1.521 
275 785 -17.097133 -2.836747 1.063 
285 785 -16.659561 -3.298201 1.025 
295 785 -16.221990 -3.759654 1.047 
305 785 -15.213354 -3.414756 1.499 
315 785 -14.571173 -6.856122 1.124 
325 785 -11.763780 -4.528081 1.353 
335 785 -8.956387 -2.200040 9.061 
345 785 -8.771156 -2.029322 4.427 
355 785 -8.895415 -2.057945 1.999 
365 785 -9.050710 -2.262061 2.773 
375 785 -9.546902 -2.651780 1.963 
385 785 -9.966717 -3.077624 2.169 
395 785 -9.988744 -3.225659 2.162 
405 785 -9.801962 -3.174694 2.838 
415 785 -9.738015 -3.051784 2.053 
425 785 -9.699153 -2.865300 2.954 
435 785 -9.699589 -2.593595 2.032 
445 785 -9.871942 -2.528721 20.000 
455 785 -10.527629 -2.486883 7.655 
465 785 -10.742939 -2.412999 1.145 
475 785 -10.829457 -2.417101 3.214 
485 785 -10.923021 -2.347629 2.801 
495 785 -10.649887 -2.272796 2.098 
505 785 -10.407804 -2.462543 1.020 
515 785 -10.154013 -2.054459 1.026 
525 785 -9.929405 -1.578084 1.836 
535 785 -9.624123 -1.157026 2.667 
545 785 -9.453574 -1.889729 2.005 
555 785 -9.530045 -1.948460 2.977 
565 785 -9.706626 -1.595282 1.704 
575 785 -9.766519 -1.465087 1.874 
585 785 -9.626914 -1.878911 3.170 
595 785 -9.350935 -1.967381 1.948 
605 785 -8.994239 -1.920388 2.484 
615 785 -9.084435 -2.117202 2.962 
625 785 -9.320799 -2.353223 6.584 
635 785 -9.453045 -2.460518 4.276 
645 785 -9.738201 -2.441581 2.938 
655 785 -9.663952 -2.326240 2.350 
665 785 -8.994252 -1.924388 1.728 
675 785 -8.988487 -2.224255 1.780 
685 785 -8.982721 -2.524123 2.247 
695 785 -8.998304 -2.670957 2.122 
705 785 -8.820743 -2.405541 1.312 
715 785 -9.034689 -2.253234 1.044 
725 785 -9.391820 -2.243703 1.019 
735 785 -9.799795 -2.449815 2.822 
745 785 -9.574851 -2.210565 3.899 
755 785 -9.260648 -2.138282 2.119 
765 785 -9.430201 -2.647107 3.313 
775 785 -9.908494 -3.281594 14.277 
785 785 -9.962981 -2.684078 3.345 
795 785 -9.574961 -2.871059 1.972 
805 785 -9.309450 -3.383320 2.998 
815 785 -9.511697 -3.442664 2.939 
825 785 -9.513121 -2.929115 1.676 
835 785 -9.393334 -2.950386 1.312 
845 785 -9.496972 -2.939738 6.580 
855 785 -9.451635 -2.527471 3.138 
865 785 -9.402108 -1.960278 2.556 
875 785 -9.422884 -1.272547 2.271 
885 785 -9.410532 -1.061793 4.645 
895 785 -9.013051 -1.042237 3.360 
905 785 -7.871764 -0.710277 1.276 
915 785 -7.816256 -1.001690 1.297 
925 785 -8.182966 -1.619752 1.408 
935 785 -8.199637 -1.189131 1.427 
945 785 -7.710054 -0.150892 1.144 
955 785 -7.469660 -0.118172 1.916 
965 785 -7.229266 -0.085453 1.968 
975 785 -7.505414 -1.410327 2.880 
985 785 -7.599187 -1.465721 7.352 
995 785 -7.680674 -1.137557 9.177 
1005 785 -7.635252 -0.883589 1.303 
1015 785 -7.274161 -0.709683 1.103 
1025 785 -7.131641 -0.479937 1.169 
1035 785 -7.248884 -0.190511 2.266 
1045 785 -6.955004 -0.538509 1.678 
1055 785 -7.053207 -0.958597 1.054 
1065 785 -7.121975 -1.322279 1.127 
1075 785 -7.089628 -0.958990 2.213 
1085 785 -6.891082 -0.862374 6.840 
1095 785 -6.647778 -0.895774 2.325 
1105 785 -6.704223 -0.808872 20.000 
1115 785 -7.508275 -0.176699 1.104 
1125 785 -7.259648 0.464227 1.051 
1135 785 -0.186912 -0.772622 1.429 
1145 785 -0.381094 4.012117 1.239 
1155 785 -1.782452 15.382561 1.459 
1165 785 -0.202676 19.541936 1.046 
1175 785 -0.228638 16.192671 1.344 
1185 785 0.064669 13.640067 1.019 
1195 785 -5.838432 11.458233 1.034 
1205 785 -0.891018 8.666854 1.140 
1215 785 -0.831579 6.949857 1.032 
1225 785 4.770396 -2.519652 1.209 
1235 785 5.184944 -6.464570 1.187 
1245 785 4.937524 -6.666961 1.075 
1255 785 4.893727 -5.413324 1.364 
1265 785 7.888357 -4.456432 1.130 
1275 785 10.882986 -3.499539 1.255 
5 775 7.972636 -0.291678 1.479 
15 775 14.872265 -0.468827 1.479 
25 775 15.160270 -2.487041 1.274 
35 775 8.458243 -5.327104 1.074 
45 775 -2.788346 1.355579 1.117 
55 775 -16.403449 0.835249 1.051 
65 775 -20.913999 -3.352697 1.076 
75 775 -20.336598 -3.372865 1.179 
85 775 -9.774653 -1.777729 1.039 
95 775 1.323844 -1.786202 1.669 
105 775 5.009191 -0.521544 1.325 
115 775 1.809025 0.950286 1.266 
125 775 2.614712 1.171968 2.496 
135 775 1.631650 1.618234 1.862 
145 775 2.263541 3.038470 1.131 
155 775 -0.841936 1.358737 1.516 
165 775 -4.641936 -0.649371 1.104 
175 775 -7.709662 0.325095 1.449 
185 775 -9.049421 0.557374 16.258 
195 775 -8.648525 0.492565 2.164 
205 775 -7.766319 0.665519 6.888 
215 775 -7.073891 0.785370 9.355 
225 775 -7.237813 1.006523 3.972 
235 775 -7.570696 0.331908 2.019 
245 775 -8.445632 -0.942624 4.347 
255 775 -8.720896 -1.521267 3.287 
265 775 -9.371363 -2.239542 1.986 
275 775 -13.406316 -2.682490 2.076 
285 775 -18.252421 -4.463514 1.967 
295 775 -16.591071 -4.394612 1.748 
305 775 -14.332503 -3.655734 1.503 
315 775 -11.312925 -2.516313 1.016 
325 775 -10.018560 -2.293147 1.380 
335 775 -8.724195 -2.069981 2.017 
345 775 -8.788681 -2.170117 1.746 
355 775 -8.975666 -2.105016 1.245 
365 775 -9.087845 -2.091358 1.339 
375 775 -9.229367 -2.223000 1.341 
385 775 -9.863735 -2.628251 1.849 
395 775 -9.572491 -3.177859 1.101 
405 775 -9.451224 -3.179148 1.342 
415 775 -9.527836 -2.827674 1.362 
425 775 -9.582722 -2.658446 1.480 
435 775 -9.750196 -2.771607 1.260 
445 775 -10.397138 -2.741564 2.428 
455 775 -11.012893 -2.649161 2.265 
465 775 -11.095165 -2.402212 1.360 
475 775 -10.975482 -2.158223 3.751 
485 775 -10.868970 -2.134385 2.940 
495 775 -10.569544 -1.869008 1.670 
505 775 -10.302875 -1.967915 1.824 
515 775 -9.954933 -1.806843 1.429 
525 775 -9.769762 -1.520738 3.304 
535 775 -9.596156 -1.360063 4.085 
545 775 -9.441985 -1.682269 3.711 
555 775 -9.526954 -1.751547 2.859 
565 775 -9.651412 -1.730394 2.188 
575 775 -9.627257 -1.809266 1.873 
585 775 -9.292973 -2.409111 2.808 
595 775 -9.068202 -2.397991 3.532 
605 775 -9.155058 -2.103713 2.764 
615 775 -9.292729 -2.052300 3.286 
625 775 -9.265053 -1.976925 2.104 
635 775 -9.275699 -2.148612 2.422 
645 775 -9.557855 -2.562283 2.720 
655 775 -9.642195 -2.644162 3.817 
665 775 -9.064596 -2.453530 2.615 
675 775 -8.702479 -2.503751 1.757 
685 775 -8.995223 -2.718424 2.074 
695 775 -9.027326 -2.818825 1.805 
705 775 -9.036809 -2.767795 1.846 
715 775 -9.344775 -2.611685 1.492 
725 775 -9.367423 -2.580202 3.135 
735 775 -9.549030 -2.627540 2.790 
745 775 -9.750653 -2.410236 2.992 
755 775 -9.528728 -2.278536 2.901 
765 775 -9.582978 -2.918791 3.786 
775 775 -9.874795 -3.518051 3.283 
785 775 -9.789144 -2.866027 1.437 
795 775 -9.391043 -2.853180 2.382 
805 775 -9.294671 -3.210877 2.985 
815 775 -9.498977 -3.061968 4.157 
825 775 -9.276309 -2.817244 2.437 
835 775 -8.936404 -2.631643 3.634 
845 775 -9.134122 -2.721044 2.356 
855 775 -9.090363 -2.556434 1.841 
865 775 -8.977511 -1.994941 2.793 
875 775 -9.205601 -1.223279 2.587 
885 775 -9.155854 -0.795900 3.384 
895 775 -8.672087 -0.782815 2.493 
905 775 -8.032378 -1.076110 4.979 
915 775 -7.554652 -1.040872 3.070 
925 775 -7.462368 -0.996947 1.649 
935 775 -7.627469 -0.696919 1.844 
945 775 -7.908543 0.208224 1.472 
955 775 -7.846288 0.147108 1.520 
965 775 -7.784034 0.085992 1.747 
975 775 -7.861494 -1.057891 2.746 
985 775 -7.856740 -1.133381 2.551 
995 775 -7.748337 -0.805091 2.136 
1005 775 -7.696748 -0.473356 1.024 
1015 775 -7.539446 -0.135167 1.039 
1025 775 -7.474998 0.016508 2.066 
1035 775 -7.256842 -0.160771 4.865 
1045 775 -7.248137 -0.157481 3.794 
1055 775 -7.722195 -0.327096 1.556 
1065 775 -7.793366 -0.863670 1.231 
1075 775 -7.424154 -1.090157 2.107 
1085 775 -7.171981 -1.113729 3.062 
1095 775 -6.862558 -1.374638 2.189 
1105 775 -6.810160 -1.549223 23.462 
1115 775 -7.407251 -1.516825 6.182 
1125 775 -7.379610 -1.395088 1.118 
1135 775 -2.745773 -1.979253 1.025 
1145 775 -2.322509 3.089742 1.019 
1155 775 -1.899246 8.158737 1.554 
1165 775 0.050352 8.168386 1.135 
1175 775 -0.241058 4.140971 1.272 
1185 775 -4.189811 6.251589 1.142 
1195 775 -4.133062 4.076410 1.141 
1205 775 -4.869564 3.038901 1.267 
1215 775 -1.473604 2.491095 1.161 
1225 775 -0.682419 -1.187710 1.080 
1235 775 0.207596 -2.097247 1.303 
1245 775 0.131754 -6.428583 1.089 
1255 775 3.302355 -4.550577 1.022 
1265 775 5.466872 -3.692693 1.024 
1275 775 8.888109 -1.963134 1.021 
5 765 5.307746 -0.620496 1.136 
15 765 6.290974 -1.197298 1.136 
25 765 3.551788 -2.642066 1.141 
35 765 0.515276 -1.962839 1.265 
45 765 -0.255680 6.059068 1.073 
55 765 -9.902216 1.881863 1.133 
65 765 -18.689415 -2.365923 1.028 
75 765 -16.439504 -1.489230 1.079 
85 765 -14.189592 -0.612536 1.103 
95 765 -7.976591 -0.442032 1.080 
105 765 -2.415763 1.998510 1.047 
115 765 -0.146810 1.784928 1.724 
125 765 1.492351 1.127260 2.135 
135 765 2.356523 0.723264 2.130 
145 765 1.644973 -0.402262 1.835 
155 765 -0.284769 -0.457909 1.681 
165 765 -4.472032 -0.622154 2.274 
175 765 -7.356911 -0.847077 1.875 
185 765 -8.214033 0.010639 2.143 
195 765 -8.052097 0.199823 2.192 
205 765 -7.279697 0.326905 1.679 
215 765 -7.222603 0.724648 2.252 
225 765 -7.437172 0.901834 3.526 
235 765 -7.927913 0.259017 1.746 
245 765 -8.426183 -0.779737 1.711 
255 765 -8.715236 -1.882511 2.350 
265 765 -8.858433 -2.574921 1.621 
275 765 -9.715500 -2.528232 1.207 
285 765 -13.323664 -3.966182 1.006 
295 765 -16.960152 -5.029569 1.021 
305 765 -11.566662 -2.702659 1.023 
315 765 -8.940086 -1.943327 1.051 
325 765 -8.615875 -1.428814 2.006 
335 765 -8.958014 -1.742376 1.693 
345 765 -9.259604 -1.926803 2.066 
355 765 -9.390356 -1.922876 1.555 
365 765 -9.228361 -1.876755 2.176 
375 765 -9.196331 -2.034023 1.095 
385 765 -9.086548 -2.774063 1.334 
395 765 -9.434264 -3.059482 1.578 
405 765 -9.249236 -3.110392 1.146 
415 765 -9.541756 -2.468884 1.937 
425 765 -9.618607 -2.362753 1.818 
435 765 -9.904375 -2.592867 1.507 
445 765 -11.123719 -2.819421 1.759 
455 765 -11.839849 -2.761069 1.481 
465 765 -11.343576 -2.748444 2.115 
475 765 -11.062636 -2.245498 4.061 
485 765 -10.901713 -2.272174 1.702 
495 765 -10.410118 -1.891401 1.446 
505 765 -9.774551 -1.695781 2.012 
515 765 -9.831466 -1.681807 2.292 
525 765 -9.580387 -1.745353 2.313 
535 765 -9.568188 -1.563100 3.534 
545 765 -9.471452 -1.698982 2.101 
555 765 -9.444673 -1.774547 2.739 
565 765 -9.456660 -1.802880 2.138 
575 765 -9.402060 -1.930482 1.840 
585 765 -9.085792 -2.499813 10.600 
595 765 -8.919329 -2.381535 19.578 
605 765 -9.102843 -2.009515 4.249 
615 765 -9.610163 -1.994855 1.452 
625 765 -9.583536 -1.960278 1.671 
635 765 -9.622652 -2.043638 2.677 
645 765 -9.897575 -2.467835 1.375 
655 765 -9.763511 -2.949325 1.779 
665 765 -8.851679 -3.015380 1.438 
675 765 -8.826656 -2.788831 1.474 
685 765 -8.927355 -2.958138 2.163 
695 765 -8.860425 -2.905238 2.892 
705 765 -8.790406 -2.775621 3.953 
715 765 -8.986369 -2.548021 6.436 
725 765 -9.035817 -2.603235 3.294 
735 765 -9.101938 -2.734732 1.183 
745 765 -9.484445 -2.559250 1.158 
755 765 -9.540826 -2.709757 1.026 
765 765 -9.748319 -3.150490 1.798 
775 765 -9.634599 -3.529894 1.711 
785 765 -9.572336 -3.078360 2.189 
795 765 -9.291038 -3.005394 1.596 
805 765 -9.373069 -3.102509 2.369 
815 765 -9.463690 -3.053942 6.772 
825 765 -9.144818 -2.796700 4.314 
835 765 -8.675458 -2.367986 1.700 
845 765 -8.825418 -2.344751 3.397 
855 765 -8.763496 -2.701819 1.177 
865 765 -8.530882 -2.331394 4.128 
875 765 -8.699306 -1.182067 2.109 
885 765 -8.780827 -0.432674 2.191 
895 765 -8.265526 -0.376638 2.275 
905 765 -7.752734 -0.743490 2.589 
915 765 -7.083464 -0.791062 2.312 
925 765 -6.948614 -0.834116 1.086 
935 765 -7.163511 -0.951272 1.431 
945 765 -7.472298 -0.462225 1.022 
955 765 -7.808314 0.185618 1.414 
965 765 -7.954302 -0.202549 1.362 
975 765 -8.124132 -0.815109 1.796 
985 765 -8.089816 -0.855808 2.024 
995 765 -7.860305 -0.658780 3.046 
1005 765 -7.632041 -0.257123 2.725 
1015 765 -7.488713 0.123151 2.344 
1025 765 -7.400104 -0.335229 3.522 
1035 765 -7.358406 -0.367336 6.855 
1045 765 -7.343784 -0.295394 6.023 
1055 765 -7.353247 -0.611220 2.680 
1065 765 -7.666467 -1.259382 1.181 
1075 765 -7.967043 -1.016331 1.321 
1085 765 -7.583122 -1.134291 3.090 
1095 765 -7.286961 -1.352022 6.053 
1105 765 -7.178661 -1.600533 8.613 
1115 765 -7.508074 -2.126974 20.000 
1125 765 -7.831576 -2.292209 2.203 
1135 765 -5.803367 -1.658900 20.000 
1145 765 -2.780735 -1.756050 1.194 
1155 765 -2.560074 -0.679487 1.537 
1165 765 1.828768 5.079590 1.100 
1175 765 1.373672 0.369382 1.253 
1185 765 -3.025391 0.217829 1.539 
1195 765 -3.128847 -0.740276 1.086 
1205 765 -2.782328 -1.673584 1.118 
1215 765 -2.115628 -1.967666 1.072 
1225 765 1.706126 -3.076654 1.040 
1235 765 2.244533 -2.701440 1.489 
1245 765 2.084341 -2.547679 1.256 
1255 765 1.710983 -3.687830 1.237 
1265 765 2.618781 -3.701622 1.083 
1275 765 7.706448 -1.348679 1.050 
5 755 2.642857 -0.949313 1.007 
15 755 2.487812 -0.917838 1.007 
25 755 0.865210 -0.469892 1.012 
35 755 0.343627 5.033101 1.088 
45 755 2.276985 10.762556 1.062 
55 755 -6.050905 8.236692 1.229 
65 755 -16.385784 1.024486 1.260 
75 755 -17.196307 0.984932 1.023 
85 755 -18.006829 0.945378 1.190 
95 755 -12.906338 1.769689 1.058 
105 755 -5.122312 3.234159 1.062 
115 755 -0.458139 1.909297 2.032 
125 755 -0.032788 1.680334 1.080 
135 755 0.787712 -0.036019 1.000 
145 755 0.925749 -0.760338 1.428 
155 755 -0.634443 -0.978359 3.365 
165 755 -4.302127 -0.594936 2.023 
175 755 -8.024313 -0.826248 1.649 
185 755 -7.930681 -0.735817 1.699 
195 755 -7.774658 -0.254185 1.590 
205 755 -7.234398 0.212180 2.622 
215 755 -7.385214 0.511013 3.044 
225 755 -7.858040 0.498389 2.665 
235 755 -8.609889 -0.150065 1.962 
245 755 -9.283139 -1.719890 2.734 
255 755 -9.318097 -2.262157 2.457 
265 755 -9.024317 -2.355135 1.847 
275 755 -8.734276 -1.877652 1.692 
285 755 -8.841802 -2.083131 1.167 
295 755 -9.264496 -2.176583 1.053 
305 755 -8.800822 -1.749584 1.323 
315 755 -8.796309 -1.753824 1.290 
325 755 -8.810430 -1.409552 1.886 
335 755 -8.973480 -1.576514 1.533 
345 755 -9.445755 -1.723725 1.934 
355 755 -9.542125 -1.831954 2.592 
365 755 -9.474529 -1.864557 5.706 
375 755 -9.500418 -1.989285 2.290 
385 755 -9.421747 -2.432759 1.014 
395 755 -9.296036 -2.941106 2.380 
405 755 -10.298892 -2.524966 2.150 
415 755 -9.853179 -2.281374 1.333 
425 755 -9.808114 -2.262764 1.048 
435 755 -10.087012 -2.409247 1.958 
445 755 -11.044998 -2.715780 4.455 
455 755 -11.824154 -2.884580 11.591 
465 755 -11.591986 -3.094676 4.469 
475 755 -11.080015 -2.867772 1.568 
485 755 -10.956150 -2.597209 3.228 
495 755 -10.452182 -2.194731 10.771 
505 755 -9.971574 -2.113594 13.537 
515 755 -9.828357 -2.219218 8.186 
525 755 -10.031493 -1.998869 2.453 
535 755 -10.156183 -1.941386 1.578 
545 755 -9.678402 -1.936510 2.900 
555 755 -9.469562 -1.896285 3.364 
565 755 -9.313408 -1.850698 3.963 
575 755 -9.231040 -1.871503 1.322 
585 755 -8.940197 -2.107758 2.862 
595 755 -8.713003 -2.028704 4.500 
605 755 -8.750091 -1.852134 1.900 
615 755 -9.182965 -1.910518 1.311 
625 755 -9.428600 -2.042485 2.125 
635 755 -9.753641 -2.115315 1.735 
645 755 -9.850889 -2.438716 1.052 
655 755 -9.880391 -2.638784 7.694 
665 755 -9.236263 -2.751620 6.642 
675 755 -8.914654 -2.895123 2.761 
685 755 -8.956041 -2.800117 2.814 
695 755 -8.766474 -2.869360 2.572 
705 755 -8.711350 -2.817092 3.002 
715 755 -8.954528 -2.531864 5.378 
725 755 -9.051942 -2.533966 2.953 
735 755 -9.112374 -2.712539 1.960 
745 755 -9.218237 -2.708264 1.290 
755 755 -9.586967 -2.851069 1.053 
765 755 -9.823649 -3.295626 1.971 
775 755 -9.394402 -3.541737 2.143 
785 755 -9.289316 -3.188064 1.281 
795 755 -9.177414 -3.110920 1.398 
805 755 -9.068852 -3.119875 2.793 
815 755 -9.300599 -2.916420 1.665 
825 755 -9.424273 -2.588964 1.229 
835 755 -9.063116 -2.225999 2.825 
845 755 -8.749992 -2.323242 1.982 
855 755 -8.664957 -2.829312 3.234 
865 755 -8.500184 -2.574394 4.158 
875 755 -8.461957 -1.454441 5.278 
885 755 -8.686892 -0.096803 2.370 
895 755 -8.449748 0.294631 1.902 
905 755 -7.422487 -0.014579 1.740 
915 755 -6.815914 -0.392292 1.545 
925 755 -6.913994 -0.721204 1.176 
935 755 -7.317871 -0.925016 1.393 
945 755 -7.189282 -0.910474 1.280 
955 755 -7.313566 -0.500630 1.909 
965 755 -7.536593 -0.301798 2.075 
975 755 -7.985768 -0.767804 83.520 
985 755 -7.975545 -1.205753 2.485 
995 755 -7.684283 -1.032523 2.691 
1005 755 -7.344613 -0.726707 1.778 
1015 755 -7.526161 -0.215685 1.581 
1025 755 -7.412109 -0.629062 3.135 
1035 755 -7.416788 -0.818952 2.097 
1045 755 -7.386889 -0.797573 3.595 
1055 755 -7.156635 -1.072167 3.729 
1065 755 -7.326300 -1.387976 1.050 
1075 755 -7.894744 -1.082155 1.323 
1085 755 -8.050762 -0.898389 2.095 
1095 755 -7.745881 -0.918794 3.091 
1105 755 -7.672135 -1.053972 3.812 
1115 755 -8.246981 -0.940281 1.614 
1125 755 -8.511249 -1.089025 4.011 
1135 755 -8.148321 -1.696739 5.324 
1145 755 -4.514266 -1.939126 1.241 
1155 755 -3.025710 -1.367602 1.033 
1165 755 -0.018654 -2.384904 1.184 
1175 755 2.988401 -3.402207 1.002 
1185 755 0.569028 -4.183359 1.028 
1195 755 0.122452 -3.314180 1.002 
1205 755 -0.303952 -6.096337 1.081 
1215 755 1.297400 -6.134192 1.504 
1225 755 1.461467 -6.295328 1.219 
1235 755 2.104512 -6.131719 1.259 
1245 755 2.451377 -5.574901 1.397 
1255 755 3.392972 -3.280669 1.512 
1265 755 2.449777 -3.009241 1.027 
1275 755 6.524787 -0.734223 1.028 
5 745 -0.022033 -1.278131 1.430 
15 745 1.126670 2.105608 1.430 
25 745 0.952669 6.403763 1.300 
35 745 0.171977 12.029040 1.400 
45 745 -0.866939 15.312839 1.034 
55 745 -1.905854 18.596638 1.394 
65 745 -12.254081 12.680726 1.009 
75 745 -19.244534 7.801332 1.472 
85 745 -15.488158 5.111244 1.106 
95 745 -13.751677 3.772703 1.101 
105 745 -5.290250 4.423665 1.039 
115 745 -0.769468 2.033666 1.586 
125 745 0.703358 1.360541 1.298 
135 745 0.845622 1.051033 1.142 
145 745 0.285227 -0.253699 1.065 
155 745 -1.785947 -1.293463 2.039 
165 745 -5.812504 -0.839642 1.825 
175 745 -8.933210 -0.638583 1.405 
185 745 -8.384248 -0.752607 1.585 
195 745 -7.645040 -0.039732 1.970 
205 745 -7.534997 0.221189 1.481 
215 745 -7.751147 0.085379 5.470 
225 745 -8.603991 -0.374622 2.367 
235 745 -9.633577 -1.152895 4.010 
245 745 -10.168180 -1.817283 3.113 
255 745 -10.086239 -2.227443 3.730 
265 745 -9.919547 -2.190482 2.121 
275 745 -9.414314 -1.883963 1.654 
285 745 -8.844431 -1.381183 2.121 
295 745 -9.096336 -1.472741 1.533 
305 745 -9.123899 -1.383761 3.420 
315 745 -8.652533 -1.564321 2.043 
325 745 -9.004986 -1.390291 1.139 
335 745 -9.260384 -1.606209 2.332 
345 745 -9.553121 -1.864321 2.539 
355 745 -9.643157 -1.917591 120.932 
365 745 -9.516371 -1.842175 5.688 
375 745 -9.434087 -1.810991 1.882 
385 745 -9.506694 -1.984605 1.233 
395 745 -9.556928 -2.375991 1.060 
405 745 -9.946294 -2.728887 3.192 
415 745 -10.031892 -2.352410 1.446 
425 745 -9.894692 -2.388835 3.179 
435 745 -10.126066 -2.689259 4.122 
445 745 -10.690321 -2.948523 5.822 
455 745 -11.148855 -3.368856 1.780 
465 745 -11.157919 -3.637961 2.893 
475 745 -11.208941 -3.389937 2.675 
485 745 -11.162173 -2.633634 4.986 
495 745 -10.576555 -2.630640 20.662 
505 745 -10.196143 -2.640692 20.000 
515 745 -10.055831 -2.648669 7.873 
525 745 -10.046630 -2.506545 2.739 
535 745 -10.133745 -2.218271 1.372 
545 745 -10.147376 -2.088628 2.569 
555 745 -9.635972 -2.078255 2.830 
565 745 -9.302899 -1.931786 3.055 
575 745 -8.984752 -2.084962 2.155 
585 745 -8.819129 -1.972675 1.400 
595 745 -8.433194 -1.811250 2.097 
605 745 -8.249093 -1.834105 1.078 
615 745 -8.485029 -1.962785 1.790 
625 745 -8.762109 -2.190593 1.344 
635 745 -9.160152 -2.111905 1.381 
645 745 -9.589579 -2.436347 1.622 
655 745 -9.352090 -2.632102 4.103 
665 745 -9.038298 -2.588917 2.186 
675 745 -8.862096 -2.580282 2.031 
685 745 -9.009658 -2.692521 3.026 
695 745 -8.881915 -2.962964 1.489 
705 745 -8.856860 -2.988204 1.946 
715 745 -9.030291 -2.717431 1.996 
725 745 -9.237362 -2.624946 3.159 
735 745 -9.218425 -2.736232 1.791 
745 745 -9.310650 -2.931379 2.272 
755 745 -9.431146 -3.001535 1.587 
765 745 -9.383326 -3.007097 1.415 
775 745 -9.224905 -3.045190 1.885 
785 745 -9.132222 -3.452545 3.072 
795 745 -9.123365 -3.131182 1.839 
805 745 -9.101608 -2.950461 2.578 
815 745 -9.344522 -2.658732 1.258 
825 745 -9.660065 -2.461327 1.195 
835 745 -9.515170 -2.423606 3.350 
845 745 -9.140980 -2.626514 2.343 
855 745 -8.894114 -2.476321 3.473 
865 745 -8.687037 -1.959278 2.258 
875 745 -8.481355 -0.865015 2.469 
885 745 -8.560945 0.342865 1.844 
895 745 -8.356478 0.671279 3.025 
905 745 -7.816929 0.525491 2.835 
915 745 -7.626667 0.084622 1.371 
925 745 -8.366528 -0.522637 2.382 
935 745 -7.472230 -0.898761 1.935 
945 745 -7.021243 -0.761949 1.392 
955 745 -6.977322 -0.333847 2.438 
965 745 -7.049736 -0.066936 27.209 
975 745 -7.483061 -0.404125 20.000 
985 745 -7.812233 -1.082214 1.147 
995 745 -7.516517 -1.094405 1.203 
1005 745 -7.491684 -0.445947 1.754 
1015 745 -7.609783 -0.409016 3.586 
1025 745 -7.556302 -0.566850 3.210 
1035 745 -7.370449 -1.007845 2.260 
1045 745 -7.439413 -1.363238 1.703 
1055 745 -7.199172 -1.267386 1.754 
1065 745 -7.078388 -1.683695 2.388 
1075 745 -8.025325 -1.241428 4.051 
1085 745 -8.564693 -0.734834 4.114 
1095 745 -8.334570 -0.487323 3.058 
1105 745 -8.371260 -0.735540 3.873 
1115 745 -8.834523 -0.962999 1.133 
1125 745 -9.232415 -0.945225 3.221 
1135 745 -8.975920 -1.547961 2.199 
1145 745 -6.003318 -1.604822 1.034 
1155 745 -3.116952 -1.656829 1.504 
1165 745 0.004635 -2.020088 1.038 
1175 745 2.190640 -2.118934 1.530 
1185 745 2.437762 -3.086783 1.079 
1195 745 3.493402 -4.278273 1.426 
1205 745 3.062993 -6.716991 1.733 
1215 745 1.833483 -9.071977 1.046 
1225 745 0.274061 -9.500169 1.613 
1235 745 1.085410 -8.256033 1.642 
1245 745 2.818413 -8.602123 1.088 
1255 745 3.702959 -2.804793 1.248 
1265 745 4.523042 -1.462280 1.086 
1275 745 5.343126 -0.119767 1.199 
5 735 -1.680727 2.562116 1.166 
15 735 -0.234472 5.129054 1.166 
25 735 0.200010 10.069459 1.441 
35 735 0.439865 17.220351 1.499 
45 735 -1.408069 19.308108 1.171 
55 735 -3.256003 21.395865 1.111 
65 735 -9.680246 12.605145 1.379 
75 735 -13.698657 10.755354 1.157 
85 735 -12.969487 9.277111 1.532 
95 735 -10.626964 6.398205 1.272 
105 735 -3.475524 3.938398 1.031 
115 735 1.415820 0.397940 1.144 
125 735 2.248886 0.418847 1.841 
135 735 1.075199 1.625325 1.695 
145 735 0.294276 0.319756 1.198 
155 735 -2.658869 -1.594583 1.215 
165 735 -6.946199 -1.412552 1.036 
175 735 -9.643204 -0.587337 1.265 
185 735 -8.305719 -0.567622 1.135 
195 735 -8.149549 0.172223 7.586 
205 735 -8.129118 0.271229 1.069 
215 735 -8.370309 -0.016024 1.520 
225 735 -8.943900 -0.826583 1.812 
235 735 -9.710308 -0.927158 3.023 
245 735 -10.347972 -1.011904 1.109 
255 735 -10.665098 -1.461444 1.075 
265 735 -10.575720 -1.665136 1.853 
275 735 -9.809071 -1.510555 4.639 
285 735 -9.265413 -1.007751 3.356 
295 735 -9.226525 -0.924717 2.081 
305 735 -9.468802 -1.182081 6.553 
315 735 -9.407599 -1.528298 3.531 
325 735 -9.840724 -1.690594 2.132 
335 735 -9.800703 -2.034920 7.151 
345 735 -9.841884 -2.234232 17.445 
355 735 -9.702903 -2.054618 7.996 
365 735 -9.167881 -1.318483 1.427 
375 735 -9.048797 -0.976294 3.240 
385 735 -9.277728 -1.429412 2.126 
395 735 -9.519710 -1.943003 1.432 
405 735 -9.917126 -2.623703 2.446 
415 735 -9.840907 -2.928411 1.555 
425 735 -9.804641 -2.908404 5.181 
435 735 -10.059232 -2.987289 20.000 
445 735 -10.388382 -3.132786 3.631 
455 735 -10.545946 -3.754057 1.589 
465 735 -10.894451 -3.895966 4.858 
475 735 -11.313334 -3.558329 6.436 
485 735 -11.452105 -2.903968 2.202 
495 735 -10.744565 -2.875164 2.912 
505 735 -10.279768 -2.933798 9.630 
515 735 -10.059460 -2.855508 2.836 
525 735 -9.835070 -2.672058 1.857 
535 735 -9.987774 -2.451822 2.003 
545 735 -10.402805 -2.283970 1.889 
555 735 -9.813364 -2.141308 1.026 
565 735 -9.176234 -1.978501 1.622 
575 735 -8.837743 -1.989957 2.409 
585 735 -8.849913 -1.835049 2.473 
595 735 -8.648534 -1.775194 2.730 
605 735 -8.477715 -1.783278 2.328 
615 735 -8.512795 -2.081025 2.750 
625 735 -8.734929 -2.250521 1.208 
635 735 -8.679217 -2.320144 1.109 
645 735 -8.798789 -2.620037 3.100 
655 735 -8.908817 -2.768922 4.247 
665 735 -8.746294 -2.716652 2.456 
675 735 -8.574308 -2.623692 2.952 
685 735 -8.765298 -2.809124 2.804 
695 735 -8.937074 -2.963365 4.712 
705 735 -9.023908 -3.059410 3.425 
715 735 -9.121716 -3.157747 1.613 
725 735 -9.294161 -2.876037 1.911 
735 735 -9.077797 -2.932361 3.856 
745 735 -9.068434 -3.120108 2.697 
755 735 -9.275326 -3.152001 2.757 
765 735 -9.169620 -3.032276 2.578 
775 735 -9.119865 -2.892058 15.284 
785 735 -9.108628 -3.108905 4.070 
795 735 -9.123034 -3.286231 2.791 
805 735 -9.182399 -2.873726 4.364 
815 735 -9.416647 -2.658548 4.033 
825 735 -9.629407 -2.527283 4.744 
835 735 -9.552596 -2.332791 20.000 
845 735 -9.304446 -2.455705 23.776 
855 735 -8.645160 -2.112901 3.966 