TITLE = "B00223"
VARIABLES = "x", "y", "u", "v", "sn"
ZONE T="Frame 0", I=128, J=80
5 795 0.000000 -0.000000 1.613 
15 795 -10.597157 -30.796207 1.613 
25 795 -9.049811 -27.397880 1.209 
35 795 -7.502464 -23.999554 1.053 
45 795 -5.955118 -20.601227 2.129 
55 795 -4.407771 -17.202901 1.210 
65 795 1.116777 -15.743321 1.236 
75 795 6.641326 -14.283740 1.567 
85 795 12.165874 -12.824160 1.102 
95 795 2.643371 -7.042480 1.176 
105 795 1.278606 -2.731328 1.038 
115 795 -9.577315 5.333333 1.353 
125 795 -10.622017 6.116917 1.045 
135 795 -11.666719 6.900500 1.115 
145 795 -7.508917 4.789557 1.061 
155 795 -6.870585 1.483916 1.036 
165 795 -7.670457 -1.781920 1.057 
175 795 -7.681026 -1.276822 2.549 
185 795 -7.691596 -0.771724 1.179 
195 795 -7.702165 -0.266625 3.046 
205 795 -7.712734 0.238473 1.520 
215 795 -7.704077 0.058901 2.392 
225 795 -7.731512 -0.087186 34.743 
235 795 -7.769153 0.057058 20.000 
245 795 -7.759744 0.412895 4.830 
255 795 -7.846503 0.881529 1.731 
265 795 -7.889881 1.108711 1.600 
275 795 -7.703503 0.531859 1.199 
285 795 -7.590557 -0.171593 19.441 
295 795 -7.664811 -0.566273 20.000 
305 795 -7.522984 -0.469306 3.401 
315 795 -6.961165 -0.076920 2.938 
325 795 -6.399934 -0.161582 5.469 
335 795 -5.763614 -0.572644 2.962 
345 795 -5.707235 -1.459154 1.174 
355 795 -6.342171 -1.557120 2.466 
365 795 -6.729242 -1.277058 1.017 
375 795 -6.498130 -1.195117 1.918 
385 795 -5.951796 -1.253595 2.020 
395 795 -5.405463 -1.312072 3.254 
405 795 -5.259150 -1.168080 1.703 
415 795 -4.979065 -1.456846 1.231 
425 795 -4.231553 -2.095067 20.000 
435 795 -3.371256 -2.633822 20.000 
445 795 -3.647540 -1.885338 7.581 
455 795 -3.923824 -1.136853 1.018 
465 795 -4.200108 -0.388368 1.956 
475 795 -4.179786 -0.482620 1.414 
485 795 -4.159464 -0.576871 2.442 
495 795 -3.948834 -0.360858 5.954 
505 795 -3.888950 -0.596339 1.898 
515 795 -3.885373 -1.002547 1.880 
525 795 -3.881797 -1.408755 1.202 
535 795 -3.605913 -1.467783 3.246 
545 795 -4.050684 -1.284434 1.356 
555 795 -4.658311 -1.594018 2.066 
565 795 -4.508259 -2.324636 2.286 
575 795 -4.210166 -2.618036 2.649 
585 795 -3.929064 -2.740773 1.298 
595 795 -3.751744 -2.691227 1.643 
605 795 -3.620524 -2.134323 2.165 
615 795 -3.847259 -1.327109 2.798 
625 795 -3.674754 -1.021607 3.410 
635 795 -3.405871 -1.067121 5.803 
645 795 -3.120158 -1.556188 1.470 
655 795 -2.622614 -2.828855 2.691 
665 795 -2.517425 -3.502056 1.479 
675 795 -2.747797 -3.610376 2.643 
685 795 -2.978170 -3.718696 1.695 
695 795 -3.208542 -3.827016 2.417 
705 795 -3.438915 -3.935335 1.728 
715 795 -3.766757 -3.800609 1.188 
725 795 -4.443861 -5.056076 1.043 
735 795 -0.725846 -14.408009 1.784 
745 795 3.790714 -24.566264 1.013 
755 795 7.549690 -30.955725 1.267 
765 795 7.577229 -29.934977 2.024 
775 795 6.038478 -20.077528 1.237 
785 795 2.494531 -12.818283 1.011 
795 795 -0.299504 -14.873832 2.195 
805 795 -3.093538 -16.929380 1.322 
815 795 -5.887573 -18.984929 1.053 
825 795 -2.082005 -7.401333 3.899 
835 795 -2.127981 -6.295036 3.459 
845 795 -2.173958 -5.188738 1.909 
855 795 -2.219934 -4.082441 1.972 
865 795 -2.265910 -2.976143 1.503 
875 795 -2.311887 -1.869846 1.093 
885 795 -1.979955 -1.542128 1.124 
895 795 -1.648023 -1.214410 1.442 
905 795 -1.316091 -0.886691 1.512 
915 795 -2.197785 -0.975355 2.058 
925 795 -2.175736 -1.364541 2.500 
935 795 -1.634946 -1.457552 1.252 
945 795 -1.449150 -1.173181 2.150 
955 795 -1.415966 -0.586378 2.067 
965 795 -2.011690 0.643830 1.515 
975 795 -1.754583 0.501003 4.950 
985 795 -1.763950 0.150197 4.031 
995 795 -0.876637 0.093951 1.241 
1005 795 -2.219654 0.121976 1.269 
1015 795 -3.562672 0.150001 2.442 
1025 795 -10.638534 2.975701 1.003 
1035 795 -17.714397 5.801400 1.602 
1045 795 -21.949485 8.488876 1.465 
1055 795 -32.980279 14.020928 1.834 
1065 795 -46.240178 20.436579 1.035 
1075 795 -46.028415 23.329091 1.144 
1085 795 -45.816653 26.221602 1.371 
1095 795 -37.386750 27.132059 1.021 
1105 795 -25.261019 26.988386 2.121 
1115 795 -12.928515 20.156147 1.003 
1125 795 -4.520375 8.289836 1.114 
1135 795 -2.777718 16.317592 1.000 
1145 795 -1.035061 24.345348 1.053 
1155 795 -2.398196 21.946941 1.025 
1165 795 -3.761331 19.548534 1.046 
1175 795 -5.124467 17.150126 2.035 
1185 795 -6.487602 14.751719 1.118 
1195 795 -7.850737 12.353312 1.213 
1205 795 -9.213872 9.954905 1.027 
1215 795 -10.577008 7.556498 1.030 
1225 795 -11.940143 5.158090 1.163 
1235 795 -13.303278 2.759683 1.167 
1245 795 -14.666413 0.361276 1.619 
1255 795 -13.084725 1.997711 1.391 
1265 795 -11.503037 3.634147 1.130 
1275 795 0.000000 -0.000000 1.028 
5 785 0.000000 -0.000000 1.613 
15 785 -9.388850 -27.889859 1.613 
25 785 5.579459 -24.512130 1.209 
35 785 3.169384 -28.772185 1.053 
45 785 -0.754089 -22.759993 2.129 
55 785 -4.677562 -16.747801 1.210 
65 785 -4.346188 -6.667340 1.236 
75 785 3.692132 -8.594555 1.567 
85 785 11.730452 -10.521770 1.102 
95 785 3.242635 -6.010369 1.176 
105 785 1.765640 -2.396325 1.038 
115 785 -7.550678 5.236322 1.353 
125 785 -10.208934 7.656656 1.045 
135 785 -9.529798 6.886788 1.115 
145 785 -6.844341 4.892160 1.061 
155 785 -6.525256 1.295947 1.036 
165 785 -7.183977 -1.789943 1.057 
175 785 -7.414883 -0.917956 2.549 
185 785 -7.425452 -0.412858 1.179 
195 785 -7.436021 0.092241 3.046 
205 785 -7.626763 0.001688 1.520 
215 785 -7.602679 -0.059453 2.392 
225 785 -7.631269 -0.056621 34.743 
235 785 -7.666663 0.116035 20.000 
245 785 -7.658872 0.510715 4.830 
255 785 -7.753988 1.039663 1.731 
265 785 -7.779939 1.223535 1.600 
275 785 -7.524626 0.618276 1.199 
285 785 -7.339729 -0.010317 19.441 
295 785 -7.373332 -0.364521 20.000 
305 785 -7.248834 -0.313115 3.401 
315 785 -6.765855 0.021142 2.938 
325 785 -6.306766 -0.014541 5.469 
335 785 -5.731191 -0.389263 2.962 
345 785 -5.772092 -1.151301 1.174 
355 785 -6.339144 -1.265067 2.466 
365 785 -6.663169 -1.068207 1.017 
375 785 -6.437358 -1.111677 1.918 
385 785 -5.921412 -1.243106 2.020 
395 785 -5.405466 -1.374534 3.254 
405 785 -5.427041 -1.280513 1.703 
415 785 -5.458682 -1.644321 1.231 
425 785 -4.440651 -2.276280 20.000 
435 785 -3.690956 -3.133362 20.000 
445 785 -3.613314 -2.781438 7.581 
455 785 -4.044688 -0.890175 1.018 
465 785 -4.209340 -1.143604 1.956 
475 785 -4.252362 -1.752616 1.414 
485 785 -4.106209 -0.763877 2.442 
495 785 -3.953121 -0.523286 5.954 
505 785 -3.887570 -0.676779 1.898 
515 785 -4.154085 -1.148495 1.880 
525 785 -3.853800 -1.617876 1.202 
535 785 -3.573531 -1.783824 3.246 
545 785 -4.000307 -1.579515 1.356 
555 785 -4.586069 -1.791170 2.066 
565 785 -4.458257 -2.403490 2.286 
575 785 -4.179828 -2.639348 2.649 
585 785 -3.885643 -2.680954 1.298 
595 785 -3.660122 -2.618212 1.643 
605 785 -3.549284 -2.212818 2.165 
615 785 -3.847912 -1.326484 2.798 
625 785 -3.794222 -0.770671 3.410 
635 785 -3.610946 -0.763128 5.803 
645 785 -3.362883 -1.299819 1.470 
655 785 -2.897826 -2.460621 2.691 
665 785 -3.086798 -3.019317 1.479 
675 785 -3.282832 -3.217086 2.643 
685 785 -3.333318 -3.157631 1.695 
695 785 -3.489033 -3.321610 2.417 
705 785 -3.680626 -3.757858 1.728 
715 785 -2.756193 -3.663380 1.188 
725 785 -2.194224 -5.046827 1.043 
735 785 -0.512041 -13.485575 1.784 
745 785 1.684892 -23.320404 1.013 
755 785 9.286041 -27.465568 1.267 
765 785 9.059554 -31.655125 2.024 
775 785 7.255957 -21.216442 1.237 
785 785 3.935364 -12.352829 1.011 
795 785 -6.107367 -14.035883 2.195 
805 785 -4.718967 -18.393627 1.322 
815 785 -4.873791 -12.546343 1.053 
825 785 -2.775074 -3.966403 3.899 
835 785 -2.402925 -2.174861 3.459 
845 785 -2.699215 -1.706852 1.909 
855 785 -2.805984 -1.132388 1.972 
865 785 -2.828250 -0.672091 1.503 
875 785 -3.295099 -1.089791 1.093 
885 785 -2.372815 -0.846564 1.124 
895 785 -1.438425 -0.687808 1.442 
905 785 -1.818985 -0.651885 1.512 
915 785 -2.445061 -0.791969 2.058 
925 785 -2.459658 -1.162587 2.500 
935 785 -1.891372 -1.233489 1.252 
945 785 -1.570568 -0.909120 2.150 
955 785 -1.434570 -0.323680 2.067 
965 785 -1.836863 0.761939 1.515 
975 785 -1.564856 0.606839 4.950 
985 785 -1.229137 0.097316 4.031 
995 785 -0.708196 -0.187000 1.241 
1005 785 -0.796049 -0.805475 1.269 
1015 785 -1.104868 -1.251664 2.442 
1025 785 -5.492362 0.664567 1.003 
1035 785 -9.879857 2.580798 1.602 
1045 785 -17.308921 5.920618 1.465 
1055 785 -29.029293 11.832034 1.834 
1065 785 -43.002058 19.030176 1.035 
1075 785 -43.630385 22.107812 1.144 
1085 785 -44.258712 25.185449 1.371 
1095 785 -35.531126 24.971061 1.021 
1105 785 -23.334363 22.806430 2.121 
1115 785 -10.384922 15.379246 1.003 
1125 785 -2.537204 4.221895 1.114 
1135 785 -2.382648 11.474142 1.000 
1145 785 -2.228091 18.726389 1.053 
1155 785 -5.601260 21.548453 1.025 
1165 785 -11.152327 20.530828 1.046 
1175 785 -16.242943 21.081012 2.035 
1185 785 -19.318040 21.264278 1.118 
1195 785 -18.503300 21.226707 1.213 
1205 785 -17.713655 22.169208 1.027 
1215 785 -16.643234 20.980204 1.030 
1225 785 -19.904447 20.143202 1.163 
1235 785 -21.255651 4.443922 1.167 
1245 785 -14.842633 6.840986 1.619 
1255 785 -12.720959 15.981919 1.391 
1265 785 -13.619177 8.904933 1.130 
1275 785 0.000000 -0.000000 1.028 
5 775 -8.298395 -2.522696 1.318 
15 775 -10.091345 -10.401066 1.318 
25 775 0.286851 -14.500282 1.153 
35 775 2.631416 -15.564263 1.021 
45 775 -2.033234 -15.877433 1.066 
55 775 0.817888 -7.407877 1.398 
65 775 3.704173 -7.803639 1.137 
75 775 8.625446 -6.804688 1.048 
85 775 10.673761 -4.699991 1.340 
95 775 6.797500 -4.076844 1.010 
105 775 0.963427 -1.179257 1.803 
115 775 -1.753510 3.698253 1.280 
125 775 -8.661493 5.611247 1.368 
135 775 -7.703854 6.719516 1.434 
145 775 -6.020027 4.823055 1.194 
155 775 -5.765806 1.557099 1.205 
165 775 -7.642030 -2.225730 3.721 
175 775 -7.549773 -1.802946 3.636 
185 775 -7.159308 -0.053991 2.437 
195 775 -7.394739 0.039752 1.055 
205 775 -7.473724 -0.016828 1.249 
215 775 -7.242341 -0.111350 2.345 
225 775 -7.390673 -0.206309 4.116 
235 775 -7.395072 0.205929 2.953 
245 775 -7.358855 0.782071 2.078 
255 775 -7.409512 1.399399 8.161 
265 775 -7.335516 1.669981 1.744 
275 775 -7.111476 0.977179 1.546 
285 775 -6.717991 0.295907 5.761 
295 775 -6.819675 -0.031803 16.438 
305 775 -6.818393 -0.057056 5.641 
315 775 -6.530772 -0.042720 3.609 
325 775 -6.215432 0.036668 3.959 
335 775 -5.900271 -0.026485 4.224 
345 775 -5.914778 -0.260038 2.251 
355 775 -6.161789 -0.656933 1.484 
365 775 -6.370735 -0.803651 8.172 
375 775 -6.192781 -1.119501 3.871 
385 775 -5.807961 -1.425425 2.618 
395 775 -5.472926 -0.882235 1.856 
405 775 -5.708179 -0.439532 2.426 
415 775 -5.908081 -0.718761 2.101 
425 775 -5.322888 -2.327205 2.152 
435 775 -3.958106 -3.420534 2.197 
445 775 -3.835662 -3.412830 1.105 
455 775 -4.436593 -2.446888 1.708 
465 775 -4.342474 -1.591385 1.801 
475 775 -4.168006 -1.007626 3.211 
485 775 -4.088661 -0.296311 2.118 
495 775 -4.105856 -0.163637 4.818 
505 775 -4.035724 -0.535771 2.540 
515 775 -4.024353 -1.229600 3.668 
525 775 -3.750566 -1.985916 9.379 
535 775 -3.723978 -2.426906 12.428 
545 775 -4.036293 -2.066179 3.561 
555 775 -4.531253 -1.766995 2.003 
565 775 -4.381073 -2.313021 1.678 
575 775 -3.904870 -2.567445 1.486 
585 775 -3.544740 -2.669234 1.534 
595 775 -3.390236 -2.783990 1.520 
605 775 -3.148412 -2.508383 2.253 
615 775 -3.399148 -1.540445 1.214 
625 775 -3.807944 -1.067953 2.951 
635 775 -3.577750 -0.948305 7.317 
645 775 -3.314788 -1.348543 4.033 
655 775 -3.199001 -1.996759 1.972 
665 775 -3.565815 -2.731974 3.137 
675 775 -3.680836 -2.598407 6.328 
685 775 -3.920643 -2.561344 2.225 
695 775 -4.035847 -3.104412 4.606 
705 775 -3.271859 -4.133100 8.693 
715 775 -1.061452 -4.517791 1.945 
725 775 1.179259 -6.261465 1.241 
735 775 6.573519 -11.155656 1.072 
745 775 9.117609 -19.795707 1.593 
755 775 11.022393 -23.975411 2.230 
765 775 10.801717 -24.628945 1.799 
775 775 7.930997 -18.575125 1.150 
785 775 3.742466 -13.736682 2.432 
795 775 0.239227 -12.632174 3.824 
805 775 0.081117 -10.658732 2.656 
815 775 -2.682039 -7.432221 3.095 
825 775 -3.138698 -2.215005 4.081 
835 775 -3.010807 -0.942504 2.542 
845 775 -3.191406 -1.175763 2.030 
855 775 -3.178914 -0.940695 1.688 
865 775 -3.166423 -0.705628 1.013 
875 775 -3.034111 -0.892164 1.656 
885 775 -2.901799 -1.078700 3.622 
895 775 -2.229675 -1.187401 2.266 
905 775 -2.469567 -0.423669 1.117 
915 775 -2.833899 -0.788095 1.280 
925 775 -2.766458 -0.933513 1.225 
935 775 -2.457328 -0.924217 1.239 
945 775 -2.396465 -0.307583 2.430 
955 775 -2.204624 0.228087 6.090 
965 775 -1.939644 0.826891 2.396 
975 775 -1.469105 0.474427 7.213 
985 775 -1.264447 0.033900 3.858 
995 775 -1.433588 -0.258474 2.028 
1005 775 -1.555081 -0.992742 1.067 
1015 775 -1.187998 -1.597731 2.987 
1025 775 -1.118507 -1.671384 1.729 
1035 775 -2.919021 -0.654235 1.747 
1045 775 -10.073421 2.572789 1.978 
1055 775 -23.903158 8.647111 1.239 
1065 775 -39.636049 16.121853 1.201 
1075 775 -41.266087 19.225368 1.283 
1085 775 -42.896125 22.328883 1.129 
1095 775 -32.718905 21.274490 2.153 
1105 775 -21.047529 17.448538 1.013 
1115 775 -9.450638 12.354576 1.683 
1125 775 -2.039542 6.182031 1.225 
1135 775 0.950816 1.744756 1.054 
1145 775 -1.305441 11.328917 1.048 
1155 775 -4.081560 15.491113 1.122 
1165 775 -9.986651 16.219140 1.396 
1175 775 -11.833283 18.129540 2.253 
1185 775 -15.977802 18.546120 1.090 
1195 775 -12.546615 20.520672 1.182 
1205 775 -12.814725 22.536300 1.075 
1215 775 -14.361510 22.587466 1.106 
1225 775 -19.942996 21.081528 1.378 
1235 775 -20.609149 12.641954 1.262 
1245 775 -13.355429 18.099213 1.340 
1255 775 -13.403404 16.731445 1.079 
1265 775 -16.485343 10.819565 1.030 
1275 775 0.000000 -0.000000 1.023 
5 765 -13.721390 0.019151 1.811 
15 765 -13.488217 -2.452710 1.811 
25 765 -1.989237 -4.391601 1.126 
35 765 2.093448 -2.356341 1.731 
45 765 -1.168766 -0.372184 1.159 
55 765 0.288336 -1.333369 1.510 
65 765 2.575567 -5.902454 1.450 
75 765 3.891726 -9.851255 1.367 
85 765 8.763059 -6.733227 1.245 
95 765 4.820905 -7.759798 1.083 
105 765 1.587470 -3.854598 1.216 
115 765 -1.783832 1.066442 1.013 
125 765 -6.935034 -0.054480 1.283 
135 765 -7.029164 2.272088 1.006 
145 765 -6.849450 2.831454 1.044 
155 765 -6.799251 -0.116727 1.149 
165 765 -7.633579 -1.471684 1.163 
175 765 -7.426010 -0.398768 2.237 
185 765 -7.132205 0.823371 5.162 
195 765 -7.325332 0.322260 36.762 
205 765 -7.141663 0.090774 1.660 
215 765 -6.951496 -0.241053 1.385 
225 765 -6.910206 0.321987 1.501 
235 765 -6.899450 0.674290 2.133 
245 765 -6.808733 1.384324 2.016 
255 765 -6.880650 1.917025 5.505 
265 765 -7.098874 1.457109 4.547 
275 765 -6.879023 0.798180 2.029 
285 765 -6.382987 0.459959 1.817 
295 765 -6.294289 0.337879 5.075 
305 765 -6.208159 0.417045 2.652 
315 765 -6.278529 0.437571 2.981 
325 765 -6.206505 0.498785 2.453 
335 765 -6.141422 0.561863 2.689 
345 765 -6.219748 0.217827 2.226 
355 765 -6.072255 -0.058264 1.684 
365 765 -5.893534 -0.623147 3.483 
375 765 -5.818043 -0.966373 5.678 
385 765 -5.833072 -1.038058 1.333 
395 765 -5.541546 -0.576960 1.264 
405 765 -5.789079 0.020397 1.000 
415 765 -5.898365 0.074719 2.259 
425 765 -4.862424 -1.329102 1.940 
435 765 -4.250060 -3.172615 1.523 
445 765 -4.091442 -3.539838 1.671 
455 765 -4.655871 -2.864911 2.083 
465 765 -4.646680 -1.793388 6.461 
475 765 -4.321103 -0.771023 2.332 
485 765 -4.237594 0.055124 1.357 
495 765 -4.289614 0.163796 1.997 
505 765 -4.364119 -0.258463 3.859 
515 765 -4.160378 -0.889048 2.457 
525 765 -3.927431 -1.973168 10.301 
535 765 -3.903537 -2.296690 40.253 
545 765 -3.946859 -2.433549 6.158 
555 765 -4.275706 -1.841232 3.258 
565 765 -4.138614 -2.012372 1.689 
575 765 -3.818313 -2.277300 1.670 
585 765 -3.528556 -2.488538 1.949 
595 765 -3.334120 -3.186354 2.741 
605 765 -3.195099 -2.876617 2.931 
615 765 -3.618369 -2.427711 2.143 
625 765 -3.869851 -1.295819 1.848 
635 765 -3.741215 -1.330431 2.423 
645 765 -3.731749 -1.619175 20.000 
655 765 -3.587881 -2.047951 2.959 
665 765 -4.359852 -2.730776 1.741 
675 765 -4.999281 -2.653889 2.010 
685 765 -4.746332 -2.251942 2.189 
695 765 -4.244808 -3.077697 4.954 
705 765 -3.119185 -4.415622 9.007 
715 765 -0.139882 -4.250455 1.003 
725 765 4.552742 -7.476102 1.410 
735 765 7.736367 -13.947697 1.395 
745 765 10.364729 -21.006631 1.024 
755 765 11.921439 -24.307633 2.384 
765 765 11.741158 -23.587915 4.392 
775 765 11.560878 -22.868197 3.454 
785 765 5.948560 -16.486989 1.137 
795 765 2.811876 -13.261228 1.468 
805 765 -0.271697 -12.174607 1.163 
815 765 -1.804580 -7.215100 3.341 
825 765 -3.118547 -2.137101 13.886 
835 765 -3.209404 -0.147754 14.634 
845 765 -2.696177 -1.085292 3.533 
855 765 -2.811959 -1.030278 4.112 
865 765 -2.927741 -0.975264 1.249 
875 765 -2.956394 -0.487286 1.132 
885 765 -2.985048 0.000693 2.051 
895 765 -2.569331 0.432590 1.694 
905 765 -3.120149 -0.195453 1.108 
915 765 -3.413049 -0.947849 1.843 
925 765 -3.223550 -0.876117 2.225 
935 765 -2.937502 -0.685190 2.237 
945 765 -2.935855 0.035662 9.647 
955 765 -2.779557 0.509972 11.337 
965 765 -2.428116 0.951808 2.223 
975 765 -1.808779 0.675651 2.592 
985 765 -1.707480 0.160187 2.252 
995 765 -2.164931 0.181114 1.954 
1005 765 -2.914381 -0.397285 1.559 
1015 765 -2.371732 -1.508797 1.310 
1025 765 -1.834262 -2.070927 1.193 
1035 765 -4.679789 -2.882104 1.036 
1045 765 -11.878017 -1.552079 1.384 
1055 765 -21.203877 5.429953 1.113 
1065 765 -36.418696 12.998642 1.069 
1075 765 -44.387068 17.394480 1.392 
1085 765 -39.925863 18.447328 1.189 
1095 765 -28.387837 16.941438 1.427 
1105 765 -13.549091 15.244772 1.191 
1115 765 -5.668532 7.409993 1.084 
1125 765 -1.021832 2.728438 1.043 
1135 765 1.779535 -3.116568 1.030 
1145 765 0.386119 2.686422 1.210 
1155 765 -0.206196 7.222115 1.034 
1165 765 -5.810518 10.019650 1.006 
1175 765 -10.386160 13.185065 1.285 
1185 765 -11.408195 15.507803 1.360 
1195 765 -10.147916 18.218139 1.416 
1205 765 -11.078778 21.774435 1.387 
1215 765 -12.909059 22.684107 1.076 
1225 765 -19.981546 22.019854 1.211 
1235 765 -19.962647 20.839986 1.121 
1245 765 -14.041935 19.880553 1.213 
1255 765 -15.976498 13.616670 1.007 
1265 765 -18.335935 6.797058 1.087 
1275 765 -16.809660 3.168642 1.121 
5 755 -28.290176 1.589220 1.168 
15 755 -26.228720 3.559139 1.168 
25 755 -7.448600 7.572143 1.086 
35 755 -6.534391 5.568552 1.732 
45 755 -6.601405 7.171319 1.354 
55 755 -4.713320 3.173319 1.528 
65 755 -2.835525 -4.744273 1.051 
75 755 -1.286028 -11.479652 1.442 
85 755 0.779142 -11.461202 1.433 
95 755 2.844311 -11.442752 1.055 
105 755 -0.187145 -6.866817 1.215 
115 755 -3.912515 -1.860244 1.171 
125 755 -7.138927 -1.078791 3.086 
135 755 -7.592342 -1.013522 1.486 
145 755 -7.678874 0.839852 1.054 
155 755 -7.832695 -1.790553 1.059 
165 755 -7.612437 -0.937565 1.158 
175 755 -7.392179 -0.084577 1.222 
185 755 -7.035583 0.908484 2.692 
195 755 -7.255924 0.604767 3.848 
205 755 -7.176754 0.060856 3.162 
215 755 -6.981097 -0.186760 8.157 
225 755 -6.797564 0.226585 1.243 
235 755 -6.594169 0.944462 1.545 
245 755 -6.453924 1.560433 3.068 
255 755 -6.636013 1.659283 2.016 
265 755 -6.972443 1.113887 12.956 
275 755 -6.461047 0.498420 11.525 
285 755 -5.512973 0.385726 1.274 
295 755 -5.413165 0.430722 1.082 
305 755 -5.502699 0.763180 1.096 
315 755 -6.172921 1.170291 5.151 
325 755 -6.320421 1.147512 2.072 
335 755 -6.416535 1.166064 1.604 
345 755 -6.566907 0.794608 1.929 
355 755 -5.927236 0.596753 3.594 
365 755 -5.646285 -0.068743 1.473 
375 755 -5.481719 -0.455415 1.183 
385 755 -5.315674 -0.615985 1.121 
395 755 -5.497880 -0.530447 1.055 
405 755 -5.649406 0.106944 1.251 
415 755 -5.678409 0.182254 1.531 
425 755 -5.000679 -0.894463 2.009 
435 755 -4.640366 -2.115236 1.457 
445 755 -4.499578 -2.361860 2.233 
455 755 -4.955298 -2.264414 1.911 
465 755 -4.943444 -1.476563 2.823 
475 755 -4.510780 -0.497948 2.356 
485 755 -4.452608 0.340832 2.854 
495 755 -4.646233 0.464421 2.330 
505 755 -5.019762 -0.087644 3.249 
515 755 -4.689956 -0.543086 2.423 
525 755 -4.300332 -1.581467 6.822 
535 755 -4.083095 -2.166474 6.801 
545 755 -4.073267 -2.022542 2.525 
555 755 -4.026800 -1.414081 1.283 
565 755 -3.955324 -1.428984 1.567 
575 755 -3.848815 -1.676265 2.723 
585 755 -3.953253 -2.079625 2.440 
595 755 -3.533640 -3.170317 1.692 
605 755 -3.241786 -3.244851 1.962 
615 755 -3.667098 -2.602841 3.647 
625 755 -4.207627 -1.902003 2.514 
635 755 -4.051199 -2.081364 3.064 
645 755 -4.240619 -2.297505 1.641 
655 755 -4.373930 -2.544173 3.088 
665 755 -5.491346 -2.442534 3.797 
675 755 -5.264705 -2.560614 1.411 
685 755 -5.038064 -2.678694 1.072 
695 755 -4.255926 -3.493515 1.903 
705 755 -2.815737 -4.810779 1.550 
715 755 0.042987 -5.365086 1.432 
725 755 3.743658 -8.269210 1.188 
735 755 5.469644 -14.399832 1.690 
745 755 8.571957 -21.979446 2.189 
755 755 8.508103 -22.566727 3.642 
765 755 9.548273 -22.936642 10.272 
775 755 9.833620 -21.536561 32.097 
785 755 6.599571 -15.739610 2.410 
795 755 3.465301 -15.098865 1.113 
805 755 -0.037922 -11.186374 1.057 
815 755 -1.763062 -7.300040 3.000 
825 755 -3.117526 -2.144110 6.034 
835 755 -2.941968 -0.148080 4.913 
845 755 -1.924048 -1.010400 2.293 
855 755 -1.988439 -1.331261 6.609 
865 755 -2.637457 -0.776705 2.592 
875 755 -3.159571 0.433112 2.602 
885 755 -3.464201 0.130375 3.953 
895 755 -3.536009 0.146198 1.770 
905 755 -3.946817 -0.470835 2.448 
915 755 -4.371691 -1.135252 8.221 
925 755 -4.073252 -1.064879 8.017 
935 755 -3.114226 -0.613261 1.881 
945 755 -3.172643 0.216372 5.551 
955 755 -3.053782 0.726004 3.954 
965 755 -2.546173 1.230238 2.915 
975 755 -2.183340 0.760187 2.080 
985 755 -2.048044 -0.122065 1.879 
995 755 -2.859313 -0.196187 2.003 
1005 755 -2.922585 -0.691988 3.118 
1015 755 -2.917805 -1.544178 1.095 
1025 755 -2.628378 -2.170393 1.115 
1035 755 -6.179545 -1.315736 1.353 
1045 755 -14.002607 1.585802 1.318 
1055 755 -20.157836 4.469950 1.151 
1065 755 -31.918055 10.110423 6.151 
1075 755 -37.715459 14.674070 8.993 
1085 755 -34.528136 15.053273 2.328 
1095 755 -26.585103 5.931080 1.091 
1105 755 -18.720391 -3.868036 1.373 
1115 755 -4.890572 1.827145 1.661 
1125 755 -0.152444 -3.749940 1.081 
1135 755 1.052193 -3.392198 1.160 
1145 755 1.843684 -4.982834 2.912 
1155 755 3.343853 0.048978 1.307 
1165 755 -2.313289 5.520946 1.129 
1175 755 -7.611055 10.834295 1.010 
1185 755 -8.407879 13.183412 1.148 
1195 755 -8.321760 16.354498 1.413 
1205 755 -12.953845 21.540670 1.117 
1215 755 -13.926710 22.041315 1.058 
1225 755 -18.893660 21.625377 1.058 
1235 755 -21.902575 19.665050 1.068 
1245 755 -17.581315 16.901007 1.581 
1255 755 -19.046183 6.583153 1.311 
1265 755 -20.184540 -2.886329 1.426 
1275 755 -20.966872 -4.454932 1.205 
5 745 -36.792837 6.414485 1.051 
15 745 -34.188011 8.673474 1.051 
25 745 -23.079666 10.321973 1.183 
35 745 -17.455383 9.989790 1.141 
45 745 -12.324836 6.860217 1.275 
55 745 -9.191865 3.500293 1.121 
65 745 -8.541016 -3.995535 1.701 
75 745 -7.243634 -11.823308 1.222 
85 745 -5.412768 -12.108642 1.032 
95 745 -3.581901 -12.393976 1.056 
105 745 -4.549476 -7.234087 1.331 
115 745 -6.999957 -2.747069 1.033 
125 745 -8.979178 -1.148026 1.713 
135 745 -9.287352 -0.325624 1.392 
145 745 -9.922138 -0.853517 1.217 
155 745 -8.599830 -2.382322 1.038 
165 745 -7.686461 -1.176082 1.177 
175 745 -6.773091 0.030158 2.284 
185 745 -7.466663 0.945178 1.391 
195 745 -7.315676 0.799928 1.350 
205 745 -7.267445 -0.120287 4.162 
215 745 -7.055998 -0.142733 4.573 
225 745 -6.899669 0.021171 20.000 
235 745 -6.821696 0.223093 2.280 
245 745 -6.597536 1.043074 2.723 
255 745 -6.722581 1.297607 1.877 
265 745 -7.011512 0.549508 1.215 
275 745 -6.469693 0.469080 7.719 
285 745 -4.737145 0.261290 2.920 
295 745 -4.684303 0.613579 2.725 
305 745 -4.797239 1.109314 1.008 
315 745 -5.984137 1.681515 1.085 
325 745 -6.670239 1.182884 1.517 
335 745 -6.825149 1.033167 1.285 
345 745 -6.530151 1.072538 1.293 
355 745 -5.773494 1.303334 1.788 
365 745 -5.585414 0.839345 1.000 
375 745 -5.477085 0.031295 1.061 
385 745 -5.327998 -0.591515 1.389 
395 745 -5.316749 -0.634206 1.186 
405 745 -5.458200 -0.230851 1.745 
415 745 -5.483003 -0.033325 1.956 
425 745 -5.176069 -0.458734 3.029 
435 745 -5.030672 -1.057856 1.630 
445 745 -4.996613 -1.236133 1.903 
455 745 -4.938683 -1.066573 1.483 
465 745 -4.919815 -0.514442 1.475 
475 745 -4.674409 0.121798 1.451 
485 745 -4.623470 0.627624 1.903 
495 745 -4.805673 0.430200 2.317 
505 745 -5.318615 -0.054923 2.822 
515 745 -5.288267 -0.287683 2.953 
525 745 -4.887681 -0.735616 1.986 
535 745 -4.433525 -1.552597 1.263 
545 745 -4.162774 -1.474720 3.984 
555 745 -4.084201 -0.827525 1.755 
565 745 -3.820549 -0.826947 1.578 
575 745 -3.784662 -0.983599 3.259 
585 745 -4.099287 -1.221586 1.662 
595 745 -3.862517 -2.058258 3.014 
605 745 -3.505143 -2.548527 1.473 
615 745 -4.153336 -2.049748 2.100 
625 745 -4.284896 -1.795330 2.145 
635 745 -4.350456 -2.451965 1.717 
645 745 -4.578149 -2.304459 2.191 
655 745 -4.698454 -2.293001 2.814 
665 745 -4.992655 -2.319644 3.737 
675 745 -4.986718 -2.561191 1.892 
685 745 -4.980782 -2.802738 1.486 
695 745 -4.699411 -3.278310 2.325 
705 745 -4.156454 -3.895187 1.870 
715 745 -2.790303 -4.523715 1.517 
725 745 -1.006350 -6.274433 1.383 
735 745 1.099543 -11.375022 1.189 
745 745 3.139317 -16.946399 1.735 
755 745 5.094767 -20.825821 5.085 
765 745 7.355387 -22.285370 6.397 
775 745 8.106361 -20.204925 3.555 
785 745 7.250582 -14.992230 1.182 
795 745 1.608694 -10.940223 1.069 
805 745 -0.926124 -7.620020 1.196 
815 745 -2.831014 -4.123595 1.619 
825 745 -3.069913 -0.440218 1.264 
835 745 -2.071770 0.249837 1.718 
845 745 -1.361211 0.029484 1.100 
855 745 -1.461980 -0.618236 2.158 
865 745 -2.242151 -0.009944 4.115 
875 745 -2.882043 0.220342 2.187 
885 745 -3.433475 0.176202 4.411 
895 745 -3.473637 -0.163686 1.728 
905 745 -4.108160 -0.516293 3.570 
915 745 -4.453664 -1.080560 15.180 
925 745 -4.299045 -0.945429 8.035 
935 745 -3.562249 -0.043444 3.351 
945 745 -3.321065 0.469196 4.728 
955 745 -3.255858 0.889231 2.479 
965 745 -2.798951 0.894910 2.234 
975 745 -2.114857 0.445301 2.226 
985 745 -1.776688 -0.107574 1.660 
995 745 -2.669295 -0.464291 1.195 
1005 745 -2.930789 -0.986691 1.744 
1015 745 -2.726464 -1.654415 1.520 
1025 745 -2.198843 -1.993209 2.007 
1035 745 -2.022532 -1.627192 1.220 
1045 745 -7.392696 0.514800 1.181 
1055 745 -16.902967 3.545813 1.037 
1065 745 -24.377295 7.742582 7.150 
1075 745 -29.299689 11.492267 22.998 
1085 745 -26.138830 11.293828 12.785 
1095 745 -18.815158 2.936854 1.068 
1105 745 -12.984588 -5.404595 1.020 
1115 745 -4.112613 -3.755703 1.447 
1125 745 -0.169536 -1.207966 1.235 
1135 745 -0.046116 -1.235062 1.193 
1145 745 0.185217 -2.373246 1.881 
1155 745 0.065931 0.862979 1.253 
1165 745 -1.672810 2.303616 1.158 
1175 745 -5.301429 9.656870 1.114 
1185 745 -6.114467 11.605852 1.425 
1195 745 -7.503496 15.422385 1.604 
1205 745 -14.188483 21.317831 1.031 
1215 745 -14.944361 21.398522 1.241 
1225 745 -17.805774 21.230899 1.011 
1235 745 -23.842502 18.490115 1.227 
1245 745 -21.507568 11.837658 1.186 
1255 745 -22.835008 2.103442 1.017 
1265 745 -22.780824 -6.017094 1.084 
1275 745 -23.616895 -7.665032 1.109 
5 735 -40.900876 9.965103 1.112 
15 735 -39.503282 9.516274 1.112 
25 735 -31.085859 12.574173 1.367 
35 735 -24.587091 11.784580 1.004 
45 735 -18.048266 6.549115 1.096 
55 735 -12.435181 -0.066014 1.144 
65 735 -10.849699 -6.499899 1.336 
75 735 -10.920615 -10.761249 1.059 
85 735 -10.546855 -11.412651 1.061 
95 735 -8.055206 -7.821684 1.191 
105 735 -7.950377 -1.347620 1.074 
115 735 -9.130443 4.198505 1.287 
125 735 -8.937031 0.216972 1.037 
135 735 -9.098958 0.420659 1.069 
145 735 -10.124597 1.332312 1.087 
155 735 -8.409448 -0.175869 1.282 
165 735 -7.356740 0.021077 1.037 
175 735 -6.978214 0.530822 2.636 
185 735 -7.273870 1.353367 2.419 
195 735 -7.375427 0.995089 1.647 
205 735 -7.179592 0.545627 2.089 
215 735 -6.782914 0.097886 3.763 
225 735 -6.823403 0.102612 2.333 
235 735 -6.848241 0.371344 2.486 
245 735 -6.909053 0.570275 3.395 
255 735 -7.310223 0.945114 2.007 
265 735 -7.588856 0.384375 2.034 
275 735 -6.967000 0.227434 4.624 
285 735 -5.466623 0.533812 2.667 
295 735 -3.955442 0.796437 2.841 
305 735 -4.408228 1.609304 2.023 
315 735 -5.622674 2.379756 1.439 
325 735 -6.163586 1.707132 1.891 
335 735 -6.415991 1.895734 1.692 
345 735 -6.030352 2.240176 1.729 
355 735 -5.734941 2.124142 2.569 
365 735 -5.576300 1.789880 1.596 
375 735 -5.551798 0.909284 1.365 
385 735 -5.239259 -0.347810 1.969 
395 735 -5.219822 -0.464196 3.139 
405 735 -5.447105 -0.088699 2.671 
415 735 -5.550602 0.155668 1.630 
425 735 -5.323165 -0.222544 2.409 
435 735 -5.604554 -0.632876 2.846 
445 735 -5.387274 -0.312128 1.767 
455 735 -4.922067 0.131268 1.429 
465 735 -5.045610 0.206179 1.633 
475 735 -4.937395 0.399520 1.828 
485 735 -4.972430 0.563107 2.018 
495 735 -4.950682 0.409920 1.728 
505 735 -5.137362 0.172701 2.148 
515 735 -4.895768 0.015569 5.586 
525 735 -4.633988 -0.185709 2.719 
535 735 -4.584777 -0.847691 1.774 
545 735 -4.150607 -0.837939 5.667 
555 735 -3.856267 -0.611437 1.452 
565 735 -3.829472 -0.560034 1.072 
575 735 -3.746445 -0.394930 1.255 
585 735 -4.062290 -0.720302 2.425 
595 735 -4.052002 -1.390001 1.920 
605 735 -4.168502 -1.942613 1.609 
615 735 -4.171481 -1.945509 1.752 
625 735 -4.444170 -1.827374 2.543 
635 735 -4.857989 -1.845522 1.431 
645 735 -4.915680 -2.311413 1.505 
655 735 -4.488285 -2.329541 2.728 
665 735 -4.180877 -2.199197 1.537 
675 735 -4.267388 -2.319088 1.301 
685 735 -4.793615 -2.604282 1.110 
695 735 -5.112736 -2.713082 1.919 
705 735 -4.956192 -2.990201 1.784 
715 735 -3.931748 -3.905103 2.806 
725 735 -3.175294 -5.105019 1.592 
735 735 -3.391450 -4.563719 1.619 
745 735 -2.536944 -7.389924 3.065 
755 735 -1.922721 -8.000561 1.270 
765 735 0.331783 -9.017749 1.096 
775 735 -3.958428 -5.738098 1.046 
785 735 -2.097584 -4.933880 1.029 
795 735 -1.425124 -4.492882 1.536 
805 735 -2.756220 -2.928490 2.494 
815 735 -2.946846 -1.281287 1.712 
825 735 -2.775013 0.382795 1.791 
835 735 -1.906214 0.776807 2.693 
845 735 -1.113047 1.020134 1.961 
855 735 -1.283805 0.424109 2.421 