TITLE = "B00259"
VARIABLES = "x", "y", "u", "v", "sn"
ZONE T="Frame 0", I=128, J=80
5 795 0.000000 -0.000000 1.108 
15 795 -2.303234 -2.914661 1.108 
25 795 -7.843334 8.828809 1.076 
35 795 -13.383434 20.572280 1.027 
45 795 -16.789684 19.377201 1.007 
55 795 -6.276361 19.326667 1.036 
65 795 -5.892351 15.345985 1.059 
75 795 -5.458552 14.821440 1.002 
85 795 -5.024752 14.296896 1.206 
95 795 -2.578307 12.346476 1.787 
105 795 2.818782 8.439087 1.258 
115 795 8.525380 2.503135 1.428 
125 795 -10.139915 -1.569936 1.180 
135 795 -8.768312 0.146446 1.127 
145 795 -7.396710 1.862827 1.090 
155 795 -6.025107 3.579209 1.414 
165 795 -5.937843 4.557443 1.239 
175 795 -3.658422 5.133169 13.012 
185 795 -2.241490 5.310103 2.772 
195 795 -2.599077 5.168778 9.009 
205 795 -3.448111 4.868050 5.046 
215 795 -3.961901 3.715082 1.931 
225 795 -3.888684 2.597536 1.091 
235 795 -4.005130 3.193346 3.870 
245 795 -4.121577 3.789156 1.612 
255 795 -4.124427 3.837358 1.675 
265 795 -4.127278 3.885560 5.707 
275 795 -3.834164 3.855841 1.347 
285 795 -4.092744 4.171060 1.088 
295 795 -4.500547 4.431745 1.112 
305 795 -4.289731 4.591939 1.669 
315 795 -3.631325 5.013946 1.903 
325 795 -3.948240 5.492562 1.413 
335 795 -4.061424 5.498181 1.128 
345 795 -2.802352 4.808819 1.438 
355 795 -2.436290 4.312824 1.169 
365 795 -2.530885 4.226440 2.212 
375 795 -2.439547 4.051938 6.038 
385 795 -2.235102 4.069246 2.131 
395 795 -2.614734 4.438093 1.217 
405 795 -2.834542 4.497118 2.513 
415 795 -2.729394 4.788874 2.443 
425 795 -2.581820 4.502151 1.279 
435 795 -2.434246 4.215428 1.103 
445 795 -2.409036 4.644049 1.006 
455 795 -1.470401 4.960456 1.439 
465 795 -1.060893 4.258838 2.631 
475 795 -0.901323 3.296421 2.636 
485 795 -0.554981 2.666329 1.708 
495 795 -0.406646 2.372259 5.241 
505 795 -0.660455 2.908700 5.887 
515 795 -0.597045 2.976287 77.274 
525 795 -0.343787 2.626608 1.995 
535 795 -0.402391 2.736281 1.491 
545 795 -0.428773 3.246605 1.960 
555 795 -0.454135 3.496130 2.627 
565 795 -0.691840 3.724649 4.087 
575 795 -1.071198 4.011949 1.749 
585 795 -1.260955 4.092442 1.493 
595 795 -1.048776 3.907053 2.075 
605 795 -0.838369 3.903919 1.084 
615 795 -0.691665 3.730640 1.422 
625 795 -0.504558 3.720112 3.939 
635 795 -0.317451 3.709583 2.788 
645 795 -0.376364 4.461157 2.550 
655 795 -0.299193 4.091889 5.281 
665 795 -0.081067 3.590517 2.527 
675 795 0.498882 3.181291 2.401 
685 795 0.563531 3.612530 2.013 
695 795 0.628180 4.043769 1.267 
705 795 0.164146 4.639994 1.193 
715 795 0.540523 5.144938 1.975 
725 795 0.246801 5.106985 1.549 
735 795 -0.046921 5.069032 2.256 
745 795 -0.312538 5.098990 1.716 
755 795 -0.080623 5.144365 4.190 
765 795 -0.140791 5.399998 1.946 
775 795 -0.200960 5.655631 3.494 
785 795 -0.261128 5.911264 3.694 
795 795 -1.008367 5.451020 1.464 
805 795 -1.224089 4.945577 7.643 
815 795 -1.052607 4.609862 8.190 
825 795 -1.020997 4.571865 1.340 
835 795 -0.862109 4.413808 1.342 
845 795 -0.180832 4.251805 1.645 
855 795 0.269796 4.202231 1.016 
865 795 0.265292 4.108498 3.070 
875 795 -0.247270 4.131070 3.185 
885 795 -0.903061 4.913434 2.261 
895 795 -0.767341 4.835601 1.022 
905 795 -0.631620 4.757767 1.216 
915 795 -0.917734 4.058528 1.136 
925 795 -1.336165 3.429276 2.210 
935 795 -1.201695 2.928511 2.454 
945 795 -1.273375 2.131062 3.128 
955 795 -2.330696 1.809626 1.436 
965 795 -2.368883 1.901376 2.332 
975 795 -2.407070 1.993126 2.485 
985 795 -2.281177 1.887625 1.775 
995 795 -1.910878 1.523306 1.117 
1005 795 -1.149846 0.498704 1.364 
1015 795 -1.055482 -0.431497 1.449 
1025 795 -1.579731 1.664207 1.159 
1035 795 -1.362480 1.036537 1.461 
1045 795 -1.144016 1.258240 1.148 
1055 795 -0.741792 2.750346 1.441 
1065 795 -0.935792 3.682258 1.783 
1075 795 -0.978320 3.890950 4.418 
1085 795 -0.629990 3.941827 2.361 
1095 795 0.375306 4.137873 2.090 
1105 795 0.711102 5.041569 1.252 
1115 795 0.671615 8.030537 1.609 
1125 795 0.632127 11.019506 1.176 
1135 795 0.592639 14.008474 1.123 
1145 795 -0.145298 19.388161 1.307 
1155 795 -0.625665 21.433802 1.173 
1165 795 -1.487029 17.725654 1.008 
1175 795 -2.348394 14.017507 1.935 
1185 795 -8.281692 13.328911 1.083 
1195 795 -5.728510 13.942966 1.194 
1205 795 -3.175329 14.557021 1.111 
1215 795 -0.622147 15.171076 1.143 
1225 795 1.931035 15.785131 1.239 
1235 795 4.484217 16.399187 1.169 
1245 795 6.474469 8.933655 1.150 
1255 795 8.464722 1.468124 1.271 
1265 795 5.343479 3.852641 1.082 
1275 795 0.000000 -0.000000 1.012 
5 785 -2.871236 -4.746422 1.108 
15 785 -3.641102 5.716377 1.108 
25 785 -7.015481 20.271960 1.076 
35 785 -14.123255 20.452960 1.027 
45 785 -15.727595 18.697444 1.007 
55 785 -9.121058 18.800428 1.036 
65 785 -6.882939 16.645772 1.059 
75 785 -6.579297 16.750306 1.002 
85 785 -6.052418 16.356676 1.206 
95 785 -3.564352 14.180464 1.787 
105 785 -0.085284 10.474140 1.258 
115 785 5.910562 4.684742 1.428 
125 785 -8.352865 0.733970 1.180 
135 785 -6.923179 0.499289 1.127 
145 785 -6.527457 2.012433 1.090 
155 785 -6.131735 3.525578 1.414 
165 785 -5.236081 4.442028 1.239 
175 785 -3.435168 4.999000 13.012 
185 785 -2.230136 5.287700 2.772 
195 785 -2.711749 5.161028 9.009 
205 785 -3.599608 4.812017 5.046 
215 785 -4.083511 3.555900 1.931 
225 785 -3.878725 2.589225 1.091 
235 785 -3.398661 1.843891 3.870 
245 785 -4.318622 3.693639 1.612 
255 785 -4.360662 3.846909 1.675 
265 785 -4.402703 4.000178 5.707 
275 785 -4.052305 3.988005 1.347 
285 785 -4.192158 4.243917 1.088 
295 785 -4.552724 4.445192 1.112 
305 785 -4.389258 4.568251 1.669 
315 785 -3.735416 4.936713 1.903 
325 785 -4.142045 5.359304 1.413 
335 785 -4.315281 5.494197 1.128 
345 785 -3.208438 4.923224 1.438 
355 785 -2.813350 4.471179 1.169 
365 785 -2.916439 4.335967 2.212 
375 785 -2.798116 4.154768 6.038 
385 785 -2.557425 4.192530 2.131 
395 785 -2.474628 4.414063 1.217 
405 785 -2.875363 4.767761 2.513 
415 785 -2.493004 4.523652 2.443 
425 785 -2.348602 4.133573 1.279 
435 785 -2.685099 4.114477 1.103 
445 785 -2.630305 4.853648 1.006 
455 785 -1.780873 5.109071 1.439 
465 785 -1.212131 4.603354 2.631 
475 785 -0.958426 3.432813 2.636 
485 785 -0.544016 2.770540 1.708 
495 785 -0.428370 2.503955 5.241 
505 785 -0.655561 3.058926 5.887 
515 785 -0.626019 3.155444 77.274 
525 785 -0.370885 2.820059 1.995 
535 785 -0.404458 2.905733 1.491 
545 785 -0.430659 3.374913 1.960 
555 785 -0.445222 3.692141 2.627 
565 785 -0.660732 3.929624 4.087 
575 785 -1.001683 4.173572 1.749 
585 785 -1.142632 4.285888 1.493 
595 785 -0.912618 4.157821 2.075 
605 785 -0.596204 4.440032 1.084 
615 785 -0.446144 4.039552 1.422 
625 785 -0.339849 3.434693 3.939 
635 785 -0.360832 3.821577 2.788 
645 785 -0.464763 4.492953 2.550 
655 785 -0.476291 4.147943 5.281 
665 785 -0.323861 3.664129 2.527 
675 785 0.191830 3.303119 2.401 
685 785 0.691721 3.364470 2.013 
695 785 0.401620 4.084661 1.267 
705 785 0.035408 4.586964 1.193 
715 785 0.399635 5.060975 1.975 
725 785 0.571502 5.233064 1.549 
735 785 -0.142502 5.028024 2.256 
745 785 -0.416743 5.058605 1.716 
755 785 -0.256909 5.086567 4.190 
765 785 -0.251382 5.279055 1.946 
775 785 -0.292541 5.841314 3.494 
785 785 -0.766641 5.758365 3.694 
795 785 -1.245136 5.374768 1.464 
805 785 -1.415103 4.867068 7.643 
815 785 -1.260674 4.501996 8.190 
825 785 -1.167981 4.468145 1.340 
835 785 -0.940691 4.347772 1.342 
845 785 -0.242953 4.135810 1.645 
855 785 0.196291 4.112189 1.016 
865 785 0.209066 4.029555 3.070 
875 785 -0.268339 4.013419 3.185 
885 785 -0.896365 4.668187 2.261 
895 785 -0.868837 5.064310 1.022 
905 785 -0.697207 4.586362 1.216 
915 785 -0.970311 3.986073 1.136 
925 785 -1.383468 3.432243 2.210 
935 785 -1.343695 3.001489 2.454 
945 785 -1.399393 2.239993 3.128 
955 785 -2.377210 1.917901 1.436 
965 785 -2.693615 1.954288 2.332 
975 785 -2.411159 2.070804 2.485 
985 785 -2.295603 2.033301 1.775 
995 785 -2.009541 1.715054 1.117 
1005 785 -1.383040 0.807339 1.364 
1015 785 -1.407794 0.652405 1.449 
1025 785 -1.682296 1.622790 1.159 
1035 785 -1.533998 1.110840 1.461 
1045 785 -1.254976 1.330700 1.148 
1055 785 -0.787692 2.642414 1.441 
1065 785 -0.968609 3.524171 1.783 
1075 785 -1.150648 3.534853 4.418 
1085 785 -0.667730 3.691396 2.361 
1095 785 0.172145 3.710924 2.090 
1105 785 0.393663 4.065339 1.252 
1115 785 0.747526 5.057532 1.609 
1125 785 0.968489 6.112337 1.176 
1135 785 0.304472 11.330949 1.123 
1145 785 -0.065126 16.639118 1.307 
1155 785 -0.274104 19.409975 1.173 
1165 785 -0.904395 16.054489 1.008 
1175 785 -1.912503 12.215136 1.935 
1185 785 -5.785566 10.634370 1.083 
1195 785 -9.212603 8.721764 1.194 
1205 785 -7.050666 10.494604 1.111 
1215 785 -2.161101 14.278451 1.143 
1225 785 3.468963 12.159944 1.239 
1235 785 8.917993 3.928830 1.169 
1245 785 14.358080 -0.038025 1.150 
1255 785 14.958658 -1.471440 1.271 
1265 785 12.126859 2.453615 1.082 
1275 785 0.000000 -0.000000 1.012 
5 775 -3.010539 3.142535 1.149 
15 775 -3.243848 13.846134 1.149 
25 775 -6.042625 19.635747 1.515 
35 775 -10.220015 20.042627 1.281 
45 775 -13.077321 18.139866 1.206 
55 775 -11.298690 17.729972 1.012 
65 775 -7.272710 18.263412 1.493 
75 775 -7.541737 18.333908 1.016 
85 775 -6.832236 17.166093 1.417 
95 775 -5.242099 14.857841 1.081 
105 775 -1.560558 9.933723 1.219 
115 775 3.231941 6.602918 1.208 
125 775 -6.565816 3.037877 1.236 
135 775 -6.395473 2.265303 1.145 
145 775 -3.706443 2.568514 1.103 
155 775 -5.312727 3.631796 1.791 
165 775 -4.219452 4.293616 2.170 
175 775 -2.810041 5.057397 20.000 
185 775 -2.284511 5.289763 2.155 
195 775 -2.994056 5.111638 1.059 
205 775 -3.936226 4.696330 1.728 
215 775 -4.247029 3.973859 1.836 
225 775 -3.294502 3.054262 1.311 
235 775 -2.578206 2.221796 1.009 
245 775 -2.272089 2.540330 1.122 
255 775 -3.597633 3.159496 2.330 
265 775 -4.923178 3.778662 2.954 
275 775 -4.201007 4.390537 1.538 
285 775 -4.209480 4.475808 1.238 
295 775 -4.492055 4.453704 1.007 
305 775 -4.232177 4.464493 1.156 
315 775 -3.773881 4.633443 2.011 
325 775 -4.598285 4.934482 1.001 
335 775 -4.293380 4.837167 1.388 
345 775 -3.988476 4.739852 2.110 
355 775 -2.979885 4.026830 1.078 
365 775 -3.372835 4.285388 1.469 
375 775 -3.145802 4.120704 2.008 
385 775 -2.756905 4.135810 5.084 
395 775 -2.299358 4.287707 3.464 
405 775 -2.039035 4.220851 1.113 
415 775 -2.256614 4.258431 1.237 
425 775 -2.575332 4.310493 1.333 
435 775 -2.714552 3.853551 1.007 
445 775 -2.520630 4.196804 1.432 
455 775 -2.091344 5.257686 1.214 
465 775 -1.444086 4.817540 1.242 
475 775 -0.899859 3.728289 2.493 
485 775 -0.471360 2.891381 2.600 
495 775 -0.353685 2.858257 1.993 
505 775 -0.752437 3.484705 16.570 
515 775 -0.751658 3.517415 20.000 
525 775 -0.489901 3.233395 2.069 
535 775 -0.441112 3.201254 2.230 
545 775 -0.443294 3.651243 1.533 
555 775 -0.405840 3.958639 1.599 
565 775 -0.587004 4.257619 2.544 
575 775 -0.835617 4.696407 2.144 
585 775 -0.780464 4.512920 2.317 
595 775 -0.429868 4.621548 9.091 
605 775 -0.280068 4.622081 30.097 
615 775 -0.265245 4.358376 3.200 
625 775 -0.197185 4.185790 3.104 
635 775 -0.240958 4.455741 1.728 
645 775 -0.577747 4.106079 1.339 
655 775 -0.671747 3.821916 1.173 
665 775 -0.568275 3.750773 2.928 
675 775 -0.504478 3.897043 4.913 
685 775 0.173488 3.640247 4.340 
695 775 0.092936 3.916080 3.050 
705 775 -0.048406 4.307545 1.222 
715 775 0.278122 4.841371 1.250 
725 775 0.182288 5.077971 1.924 
735 775 -0.304663 5.047013 5.060 
745 775 -0.288922 5.166980 1.608 
755 775 -0.273493 5.025721 1.708 
765 775 -0.695653 5.033597 1.234 
775 775 -1.236373 5.564970 4.638 
785 775 -1.567912 5.622259 2.892 
795 775 -1.828513 5.336046 2.192 
805 775 -1.761068 4.622263 6.670 
815 775 -1.667525 4.266956 10.269 
825 775 -1.609844 4.257001 3.581 
835 775 -1.201314 4.205894 2.155 
845 775 -0.998492 4.092427 1.675 
855 775 -0.141293 4.234246 1.372 
865 775 -0.020930 4.183342 1.924 
875 775 -0.701836 3.913430 2.175 
885 775 -1.161191 4.088690 2.779 
895 775 -1.138701 4.424169 2.256 
905 775 -0.723851 4.181785 1.352 
915 775 -1.038071 3.671944 1.010 
925 775 -1.487023 3.335075 2.592 
935 775 -1.850580 3.032103 1.611 
945 775 -2.196791 2.635175 2.265 
955 775 -2.566535 2.212751 2.088 
965 775 -2.700789 1.933591 2.224 
975 775 -2.405600 1.760508 2.091 
985 775 -2.177018 1.939280 2.200 
995 775 -1.835298 1.898079 2.454 
1005 775 -1.543603 1.690614 2.265 
1015 775 -1.664231 1.635994 1.144 
1025 775 -1.784860 1.581374 1.114 
1035 775 -1.648924 1.012115 1.432 
1045 775 -1.298278 1.439503 1.421 
1055 775 -0.922662 2.583854 1.650 
1065 775 -0.932499 3.121438 2.062 
1075 775 -1.322976 3.178756 3.394 
1085 775 -0.721959 3.311358 1.729 
1095 775 -0.063448 3.102326 2.054 
1105 775 0.391683 3.050031 1.114 
1115 775 -0.001747 4.442896 2.070 
1125 775 -0.620893 4.442509 2.136 
1135 775 -0.641777 3.151269 1.466 
1145 775 -0.325147 7.782362 1.095 
1155 775 -0.003774 4.695140 1.446 
1165 775 -0.834839 8.283843 1.015 
1175 775 -1.635087 9.876529 1.182 
1185 775 -3.415610 8.315058 1.070 
1195 775 -6.007805 8.297323 1.151 
1205 775 -1.778849 6.547874 1.027 
1215 775 1.564306 7.551358 1.293 
1225 775 5.110022 3.219520 1.596 
1235 775 10.804005 -1.749067 1.046 
1245 775 14.283377 -1.261074 1.159 
1255 775 16.323352 -1.733786 1.241 
1265 775 14.607614 -0.490587 1.757 
1275 775 8.806459 0.724367 1.256 
5 765 -2.916938 8.256369 1.014 
15 765 -2.993627 13.992835 1.014 
25 765 -4.753553 17.341374 1.018 
35 765 -6.939628 14.607893 1.022 
45 765 -10.427047 17.582288 1.123 
55 765 -10.788491 18.093097 1.737 
65 765 -8.900926 19.027105 1.119 
75 765 -8.504178 19.917510 1.095 
85 765 -8.618152 17.728710 1.063 
95 765 -9.618353 13.962461 1.452 
105 765 -2.352041 11.315305 1.593 
115 765 0.553320 8.521094 1.712 
125 765 -0.362716 6.347078 1.429 
135 765 -1.470870 4.489632 1.235 
145 765 -1.800791 3.085858 1.216 
155 765 -3.587926 4.178834 1.461 
165 765 -3.791324 4.275185 1.349 
175 765 -3.237051 5.562989 1.001 
185 765 -2.777886 5.383393 1.058 
195 765 -3.414096 5.111395 1.052 
205 765 -4.266762 4.224714 1.911 
215 765 -4.350915 3.749475 1.116 
225 765 -3.054333 3.174588 1.073 
235 765 -1.757751 2.599702 1.692 
245 765 -3.715294 3.006563 1.026 
255 765 -4.519717 3.515653 2.353 
265 765 -5.324140 4.024743 2.477 
275 765 -4.352924 4.455091 1.242 
285 765 -4.231713 4.413467 1.121 
295 765 -4.452787 4.289457 1.401 
305 765 -4.018808 4.312068 2.284 
315 765 -4.099613 4.312594 1.913 
325 765 -4.534106 4.733744 1.039 
335 765 -4.180687 4.912171 1.440 
345 765 -3.827268 5.090598 1.037 
355 765 -3.246779 4.706538 1.106 
365 765 -3.565394 4.232441 1.544 
375 765 -3.604379 4.194392 1.154 
385 765 -3.535656 4.306892 2.182 
395 765 -2.664618 4.583393 2.027 
405 765 -2.096608 4.430752 1.201 
415 765 -1.874658 3.737846 1.036 
425 765 -2.100705 1.407211 1.356 
435 765 -2.326751 -0.923424 1.355 
445 765 -2.598973 2.095075 1.247 
455 765 -2.871195 5.113574 1.963 
465 765 -1.826346 4.762003 1.633 
475 765 -0.800518 3.728126 2.042 
485 765 -0.645074 3.242118 12.667 
495 765 -0.502784 3.282660 20.000 
505 765 -0.845252 3.761359 20.000 
515 765 -0.844777 3.926054 2.910 
525 765 -0.581313 3.537415 2.435 
535 765 -0.513482 3.366760 1.820 
545 765 -0.444738 3.783548 1.288 
555 765 -0.317208 4.296830 1.433 
565 765 -0.364131 4.919964 2.084 
575 765 -0.628036 4.725918 1.437 
585 765 -0.669638 4.601601 2.180 
595 765 -0.461711 4.727789 6.504 
605 765 -0.480303 4.524670 6.951 
615 765 -0.471382 4.232583 2.334 
625 765 -0.403221 4.223134 2.539 
635 765 -0.491801 4.516310 1.834 
645 765 -0.763310 4.539384 2.170 
655 765 -0.703170 3.886612 1.639 
665 765 -0.697392 3.697927 2.046 
675 765 -0.805122 3.960926 4.742 
685 765 -0.487056 4.039805 2.398 
695 765 -0.216404 4.035059 2.281 
705 765 -0.041742 4.204378 1.786 
715 765 0.106995 4.541953 1.535 
725 765 0.123774 4.564724 3.654 
735 765 -0.279918 4.853989 5.849 
745 765 -0.457944 5.291535 2.940 
755 765 -0.865915 5.004236 2.036 
765 765 -1.716632 5.135614 1.054 
775 765 -2.210682 5.153819 2.127 
785 765 -2.402341 5.412317 1.462 
795 765 -2.415605 5.443944 1.962 
805 765 -2.365626 4.751321 2.447 
815 765 -2.276633 4.274473 3.619 
825 765 -2.164180 4.247481 2.127 
835 765 -1.698882 4.074468 2.199 
845 765 -1.399474 3.981389 1.950 
855 765 -0.970101 4.172814 1.289 
865 765 -0.809456 4.246970 1.520 
875 765 -1.353640 3.641301 2.015 
885 765 -1.681120 3.532152 3.472 
895 765 -1.693700 3.627630 3.076 
905 765 -1.519949 3.626712 1.544 
915 765 -1.396139 3.352622 3.037 
925 765 -1.704200 3.278174 1.354 
935 765 -2.073222 3.379460 1.084 
945 765 -2.352782 3.101365 1.245 
955 765 -2.560963 2.681244 2.151 
965 765 -2.560103 2.349726 1.572 
975 765 -2.274370 2.324018 15.847 
985 765 -2.023081 2.432520 9.654 
995 765 -1.855660 1.944431 29.148 
1005 765 -1.768416 1.883634 2.313 
1015 765 -1.902087 2.051067 2.232 
1025 765 -1.818542 1.354872 1.538 
1035 765 -1.874828 1.402645 1.855 
1045 765 -1.484378 1.567402 2.423 
1055 765 -0.899558 2.344738 1.788 
1065 765 -0.977463 2.695299 4.209 
1075 765 -1.299012 2.739803 39.657 
1085 765 -1.138484 2.875672 2.235 
1095 765 -0.357579 2.604255 1.339 
1105 765 -0.299243 2.770042 1.051 
1115 765 -0.724622 3.135066 1.879 
1125 765 -1.273891 2.357792 1.890 
1135 765 -1.096581 -0.073278 1.155 
1145 765 -0.828564 -0.196339 1.839 
1155 765 -0.995873 3.869229 1.303 
1165 765 -1.656999 8.249195 1.263 
1175 765 -1.744398 9.951674 1.402 
1185 765 -3.639048 9.265407 1.235 
1195 765 -2.803007 7.872882 1.343 
1205 765 0.360033 7.312464 1.109 
1215 765 -0.416507 4.095987 1.099 
1225 765 3.060325 0.556433 1.364 
1235 765 12.622713 -1.525555 1.090 
1245 765 15.155379 -1.760843 1.592 
1255 765 17.688045 -1.996131 1.269 
1265 765 15.382022 -0.238924 1.626 
1275 765 9.050180 0.848631 1.590 
5 755 -2.823338 13.370204 1.114 
15 755 -2.743406 14.139535 1.114 
25 755 -3.464481 15.047002 1.212 
35 755 -3.757814 14.932567 1.283 
45 755 -7.408703 19.469715 1.986 
55 755 -12.057227 19.146200 1.763 
65 755 -10.529142 19.790799 1.089 
75 755 -10.936635 19.898856 1.063 
85 755 -9.820886 18.186590 1.015 
95 755 -8.192145 14.920519 1.538 
105 755 -6.563404 11.654449 1.010 
115 755 -0.341927 10.908673 1.005 
125 755 -0.205972 8.313165 1.693 
135 755 -1.405946 5.572358 1.817 
145 755 -2.300835 2.688079 1.686 
155 755 -3.206995 3.254120 1.695 
165 755 -3.363196 4.256754 1.388 
175 755 -3.073287 5.218819 1.153 
185 755 -3.316148 5.353615 1.087 
195 755 -3.757692 4.509898 2.046 
205 755 -4.432596 3.986714 3.423 
215 755 -4.406889 3.613943 1.245 
225 755 -4.045979 3.242479 1.480 
235 755 -4.776662 3.248091 1.053 
245 755 -5.609060 3.568308 2.260 
255 755 -5.513311 3.705891 1.796 
265 755 -4.852438 3.718779 2.461 
275 755 -4.340813 4.195178 2.356 
285 755 -4.071193 4.229666 1.395 
295 755 -4.532951 3.873766 1.183 
305 755 -4.541517 3.679961 2.256 
315 755 -4.403237 3.801918 1.516 
325 755 -4.150393 4.267020 3.686 
335 755 -3.912286 5.091570 1.489 
345 755 -3.047378 4.989449 1.045 
355 755 -2.795809 4.638784 1.119 
365 755 -3.190239 4.141136 1.180 
375 755 -4.062957 4.268081 1.643 
385 755 -4.294984 4.587614 1.214 
395 755 -3.598267 4.873250 1.460 
405 755 -1.882210 4.436502 2.148 
415 755 -1.446201 4.006722 1.066 
425 755 -1.699231 -0.329587 1.739 
435 755 -1.952262 -4.665896 1.009 
445 755 -2.052923 0.130448 1.263 
455 755 -2.153585 4.926791 2.381 
465 755 -1.604845 4.852821 7.720 
475 755 -1.266140 4.391530 11.055 
485 755 -1.120607 3.648005 6.258 
495 755 -1.126497 3.592049 17.382 
505 755 -1.306377 3.841945 2.077 
515 755 -1.085261 4.086069 19.440 
525 755 -0.650723 3.986730 3.032 
535 755 -0.578538 3.669880 3.935 
545 755 -0.598236 3.802464 2.330 
555 755 -0.370138 4.446954 1.961 
565 755 -0.515700 4.649927 1.395 
575 755 -0.607476 4.561875 1.650 
585 755 -0.730609 4.736109 2.425 
595 755 -0.815572 4.586084 2.656 
605 755 -0.996623 4.248873 3.481 
615 755 -0.950061 3.823057 2.199 
625 755 -0.859243 3.812614 1.927 
635 755 -0.863879 4.441032 2.062 
645 755 -1.123228 4.376764 3.481 
655 755 -1.051723 3.856390 1.793 
665 755 -1.002036 3.719899 1.447 
675 755 -0.787340 4.203123 2.218 
685 755 -0.639389 4.167959 3.939 
695 755 -0.624398 4.077010 3.919 
705 755 -0.393925 4.075632 6.622 
715 755 -0.194217 4.263017 5.983 
725 755 -0.169777 4.209913 3.557 
735 755 -0.584518 4.538468 5.402 
745 755 -1.104664 5.068966 2.719 
755 755 -1.510084 4.796254 1.590 
765 755 -2.095239 4.150103 1.721 
775 755 -2.900009 4.301818 3.079 
785 755 -3.382686 4.867520 2.590 
795 755 -3.154268 5.041088 2.940 
805 755 -3.051716 5.078694 1.257 
815 755 -2.978461 4.685913 1.295 
825 755 -2.794857 4.196704 2.057 
835 755 -2.380886 3.693658 2.482 
845 755 -2.168596 4.023201 2.173 
855 755 -1.995480 4.091642 1.611 
865 755 -1.969924 3.887401 1.212 
875 755 -2.127665 3.484398 2.582 
885 755 -2.486999 3.320380 3.444 
895 755 -2.792734 3.520750 2.257 
905 755 -2.500628 3.400999 1.863 
915 755 -1.912149 3.331427 4.264 
925 755 -1.853396 3.407487 5.406 
935 755 -2.211743 3.572917 1.322 
945 755 -2.345079 3.511427 1.660 
955 755 -2.393691 3.179402 7.230 
965 755 -2.358905 2.788225 3.532 
975 755 -2.299236 2.678881 4.257 
985 755 -2.212776 2.684398 9.154 
995 755 -2.085092 2.233343 20.000 
1005 755 -2.119579 2.217090 1.470 
1015 755 -2.065728 2.189895 4.211 
1025 755 -1.980216 1.998808 1.534 
1035 755 -1.964745 1.808894 3.053 
1045 755 -1.361947 1.616909 1.574 
1055 755 -1.014035 1.954948 2.060 
1065 755 -1.080744 2.446200 3.533 
1075 755 -1.555094 2.475256 4.153 
1085 755 -1.610392 2.589199 9.576 
1095 755 -1.119126 2.688259 4.794 
1105 755 -0.990169 2.490054 1.039 
1115 755 -1.212711 2.130146 1.279 
1125 755 -1.252575 1.950425 1.545 
1135 755 -1.347980 0.474227 1.702 
1145 755 -0.996407 0.289467 1.080 
1155 755 -1.279641 5.836126 1.187 
1165 755 -2.128159 11.995470 1.924 
1175 755 -2.689225 13.273733 1.989 
1185 755 -4.519501 11.115785 1.121 
1195 755 -2.042023 9.855171 1.391 
1205 755 0.271260 6.838353 1.692 
1215 755 0.439915 3.868004 1.063 
1225 755 0.957958 1.128990 1.002 
1235 755 7.275635 -1.156560 1.020 
1245 755 11.514130 -1.996729 1.146 
1255 755 13.412543 -0.725550 1.824 
1265 755 11.955114 1.664714 1.770 
1275 755 10.343407 1.671524 1.781 
5 745 -2.139558 13.195619 1.086 
15 745 -2.493184 14.286235 1.086 
25 745 -2.175409 12.752630 1.120 
35 745 -3.068340 18.368335 1.692 
45 745 -4.271488 19.724939 1.831 
55 745 -9.575735 19.285521 1.284 
65 745 -11.838366 19.140848 1.396 
75 745 -12.447639 18.745695 1.190 
85 745 -11.307501 17.835038 1.434 
95 745 -9.613160 19.049042 1.189 
105 745 -7.143921 17.851374 1.097 
115 745 -2.298138 14.498893 1.552 
125 745 -2.238114 13.275934 1.034 
135 745 -4.194312 7.796450 1.773 
145 745 -4.219760 4.600120 1.045 
155 745 -3.267175 3.743470 1.706 
165 745 -2.992221 4.463588 1.024 
175 745 -3.133943 5.665452 1.039 
185 745 -3.471578 5.248467 1.348 
195 745 -3.798729 4.016848 2.027 
205 745 -4.642853 3.501108 2.011 
215 745 -4.556590 3.466208 1.164 
225 745 -4.343403 3.487976 1.780 
235 745 -5.121892 3.067207 1.647 
245 745 -5.502546 3.339971 1.861 
255 745 -5.308205 3.427907 1.214 
265 745 -4.788743 3.518240 2.227 
275 745 -4.428189 4.050972 1.887 
285 745 -4.616017 3.501322 4.290 
295 745 -4.805511 3.220756 2.253 
305 745 -4.705475 3.190654 1.895 
315 745 -4.520238 3.293500 1.388 
325 745 -4.061974 3.598801 4.022 
335 745 -3.192524 3.907389 2.414 
345 745 -2.584149 4.368833 1.367 
355 745 -2.184566 4.181261 1.154 
365 745 -2.563328 4.006466 1.170 
375 745 -3.650483 3.893385 1.539 
385 745 -4.737638 3.780303 1.473 
395 745 -4.205240 4.555067 1.392 
405 745 -3.672842 5.329831 2.226 
415 745 -1.966655 5.139990 1.444 
425 745 -1.751277 5.719112 1.151 
435 745 -2.168580 0.551254 1.318 
445 745 -2.235495 5.833556 1.045 
455 745 -1.809292 5.560217 7.788 
465 745 -1.636196 5.290580 28.484 
475 745 -1.468672 4.753714 43.684 
485 745 -1.457663 4.215643 3.036 
495 745 -1.749561 3.908530 1.449 
505 745 -2.033974 3.706878 3.050 
515 745 -1.503901 4.129343 4.496 
525 745 -0.837318 4.349900 1.933 
535 745 -0.858576 3.721649 1.795 
545 745 -0.839692 3.842313 2.835 
555 745 -0.860855 4.142661 1.647 
565 745 -0.942157 4.301345 2.237 
575 745 -0.933572 4.501526 2.365 
585 745 -0.921758 4.654291 5.872 
595 745 -0.931574 4.537000 2.769 
605 745 -1.073948 4.050143 1.837 
615 745 -0.882889 3.851042 1.598 
625 745 -0.795207 4.029019 1.171 
635 745 -1.206318 4.057601 2.614 
645 745 -1.303100 4.039784 2.162 
655 745 -1.410870 4.080762 1.644 
665 745 -1.300892 4.175055 1.736 
675 745 -1.034900 4.446108 2.122 
685 745 -0.860216 4.360578 2.642 
695 745 -0.937537 4.135377 3.070 
705 745 -0.735187 4.043970 3.559 
715 745 -0.548849 4.149953 11.931 
725 745 -0.693030 4.170198 2.431 
735 745 -1.049808 4.422436 2.760 
745 745 -1.643296 4.838802 2.959 
755 745 -2.054703 3.967124 1.415 
765 745 -2.521067 3.342502 2.032 
775 745 -3.375970 3.841446 1.370 
785 745 -3.996945 4.384801 6.863 
795 745 -4.071051 4.579717 6.292 
805 745 -3.825987 4.610463 1.580 
815 745 -3.603548 5.020036 2.030 
825 745 -3.222981 4.904627 1.119 
835 745 -2.814358 3.960868 1.959 
845 745 -2.578564 3.379529 1.598 
855 745 -2.986759 3.567130 1.612 
865 745 -3.130392 3.527831 1.847 
875 745 -3.325501 3.559125 1.458 
885 745 -3.442887 3.366851 2.343 
895 745 -3.401521 3.217427 1.277 
905 745 -3.001637 3.021551 1.752 
915 745 -2.469416 3.009024 5.512 
925 745 -2.105201 3.124373 2.480 
935 745 -2.279897 3.291475 1.555 
945 745 -2.088901 3.274697 1.064 
955 745 -1.945542 3.042018 2.114 
965 745 -1.920685 2.648795 2.640 
975 745 -2.033011 2.632753 1.911 
985 745 -2.300686 2.745887 88.315 
995 745 -2.257168 2.461673 1.163 
1005 745 -2.142182 2.234455 2.761 
1015 745 -2.042848 2.086289 2.515 
1025 745 -2.091442 2.259436 1.239 
1035 745 -2.126509 2.342850 2.959 
1045 745 -1.819795 2.166243 3.360 
1055 745 -1.744225 2.381186 2.241 
1065 745 -1.671205 2.549194 2.281 
1075 745 -1.828768 2.491405 2.825 
1085 745 -1.746619 2.650592 1.865 
1095 745 -1.238604 2.507625 1.843 
1105 745 -0.942372 2.306205 2.473 
1115 745 -0.983034 2.124954 1.147 
1125 745 -1.231259 1.543058 1.946 
1135 745 -1.220311 1.171854 2.568 
1145 745 -1.196584 1.904909 3.331 
1155 745 -1.478765 6.416374 1.109 
1165 745 -2.337993 12.843815 1.349 
1175 745 -4.571521 13.579193 1.804 
1185 745 -5.399955 12.966163 1.542 
1195 745 -3.173370 10.427483 1.002 
1205 745 -0.974463 7.931142 1.531 
1215 745 -2.268012 5.901034 1.075 
1225 745 -1.876143 2.608705 1.022 
1235 745 3.216867 1.702674 1.003 
1245 745 7.429687 1.619137 1.256 
1255 745 8.129751 2.816476 1.047 
1265 745 8.528205 3.568353 1.188 
1275 745 8.437466 3.460582 1.255 
5 735 -1.455778 13.021035 1.233 
15 735 -3.197780 15.505448 1.233 
25 735 -4.073989 14.620996 1.069 
35 735 -3.925156 17.109216 1.645 
45 735 -4.933791 17.285812 1.664 
55 735 -7.235321 17.696687 1.120 
65 735 -11.925996 16.506645 1.068 
75 735 -12.360056 16.995066 1.002 
85 735 -12.794116 17.483486 1.031 
95 735 -11.874673 21.109161 1.529 
105 735 -7.229542 19.589514 2.479 
115 735 -3.579918 16.476778 1.293 
125 735 -4.653801 12.087386 1.039 
135 735 -4.275608 6.851389 1.582 
145 735 -5.169659 5.548067 1.926 
155 735 -3.327355 4.232820 1.373 
165 735 -3.492701 6.863400 1.078 
175 735 -4.219466 13.136789 1.213 
185 735 -3.729374 8.740645 1.140 
195 735 -3.449856 5.016997 1.906 
205 735 -4.118792 3.930457 1.054 
215 735 -4.245101 3.425320 1.007 
225 735 -4.181284 3.244132 1.413 
235 735 -4.560431 3.360213 1.035 
245 735 -4.935635 3.238306 1.339 
255 735 -4.797176 3.147473 1.470 
265 735 -4.652625 3.149023 3.074 
275 735 -4.645747 3.419577 3.232 
285 735 -4.709470 3.064117 4.210 
295 735 -4.749334 2.597693 4.435 
305 735 -4.668644 2.502976 2.338 
315 735 -4.506288 2.748896 1.644 
325 735 -3.993974 3.055326 2.201 
335 735 -3.333546 3.327025 1.524 
345 735 -2.512425 3.689514 1.590 
355 735 -2.461779 4.178717 1.030 
365 735 0.014329 4.207901 1.030 
375 735 -1.855445 4.105458 1.157 
385 735 -3.725218 4.003015 2.076 
395 735 -5.801121 6.040403 1.263 
405 735 -7.877023 8.077791 1.172 
415 735 -3.539865 5.774814 1.191 
425 735 -1.665323 5.408255 1.785 
435 735 -2.384898 5.768403 1.588 
445 735 -1.756758 5.790765 1.256 
455 735 -1.535516 5.525929 4.238 
465 735 -1.532150 5.410359 5.735 
475 735 -1.573354 5.074239 2.669 
485 735 -1.698483 4.818632 3.509 
495 735 -2.242319 4.122409 1.611 
505 735 -2.436793 3.935624 1.337 
515 735 -1.967153 3.945136 1.252 
525 735 -1.293088 4.029711 1.290 
535 735 -1.260264 3.579854 1.633 
545 735 -1.262968 3.620413 1.466 
555 735 -1.253902 3.836521 1.474 
565 735 -1.261473 3.987869 1.936 
575 735 -1.276632 4.079857 2.625 
585 735 -1.396050 4.125091 2.024 
595 735 -1.350474 4.092563 2.177 
605 735 -1.184419 3.821337 1.130 
615 735 -0.813060 3.885611 1.030 
625 735 -0.956160 3.839301 1.644 
635 735 -1.611229 3.618332 3.359 
645 735 -1.840739 3.904021 2.603 
655 735 -1.923105 4.293110 2.652 
665 735 -1.668712 4.497235 4.418 
675 735 -1.117450 4.568992 3.512 
685 735 -0.722258 4.445803 3.575 
695 735 -0.803937 4.030869 3.314 
705 735 -0.909859 3.930053 1.702 
715 735 -0.356448 4.102490 1.011 
725 735 -0.743410 4.173161 2.110 
735 735 -1.469279 4.419224 2.382 
745 735 -2.171840 4.726844 1.470 
755 735 -2.326906 3.701099 2.358 
765 735 -2.711215 3.474131 1.716 
775 735 -3.551231 3.832301 1.199 
785 735 -4.102507 4.140097 5.186 
795 735 -4.153949 4.345178 9.946 
805 735 -3.976105 4.268901 1.949 
815 735 -3.976936 4.949888 4.057 
825 735 -3.571058 4.783124 5.095 
835 735 -2.999315 3.974655 1.574 
845 735 -2.800708 3.257980 1.330 
855 735 -3.325008 3.164891 1.353 
865 735 -3.485663 3.156156 4.351 
875 735 -3.514369 3.387645 1.522 
885 735 -3.719433 3.393295 1.679 
895 735 -3.468995 3.146075 3.882 
905 735 -3.027128 2.948440 4.942 
915 735 -2.586882 2.801474 6.195 
925 735 -2.341245 2.505269 20.000 
935 735 -2.232019 2.776244 2.233 
945 735 -1.865088 2.930125 1.055 
955 735 -1.481055 2.987791 1.522 
965 735 -1.501528 2.709662 1.308 
975 735 -1.588427 2.482170 1.127 
985 735 -2.145977 2.742835 2.428 
995 735 -2.350979 2.486304 1.729 
1005 735 -2.439508 2.208693 1.106 
1015 735 -2.434004 2.216125 1.418 
1025 735 -2.385045 2.612720 1.254 
1035 735 -2.267468 2.939199 2.374 
1045 735 -2.193820 2.629934 1.467 