TITLE = "B00232"
VARIABLES = "x", "y", "u", "v", "sn"
ZONE T="Frame 0", I=128, J=80
5 795 0.000000 -0.000000 1.001 
15 795 0.000000 -0.000000 1.001 
25 795 -6.536782 3.792527 1.031 
35 795 -2.734470 5.524400 1.259 
45 795 -1.675875 5.366464 1.105 
55 795 0.266348 2.606114 1.024 
65 795 0.118082 4.836419 1.046 
75 795 -0.030183 7.066725 1.113 
85 795 -0.178448 9.297030 1.145 
95 795 -0.326714 11.527336 1.136 
105 795 -0.474979 13.757641 1.072 
115 795 8.300367 28.995363 1.030 
125 795 6.309727 25.748344 1.174 
135 795 4.319088 22.501325 1.275 
145 795 -12.645526 22.629907 1.447 
155 795 -11.509036 14.459046 1.016 
165 795 -10.372545 6.288186 1.892 
175 795 -9.810468 4.688098 3.792 
185 795 -9.167610 5.390081 1.733 
195 795 -7.703708 9.225464 1.292 
205 795 -8.077595 7.757252 1.052 
215 795 -8.451481 6.289040 1.487 
225 795 -8.825367 4.820829 2.162 
235 795 -9.199254 3.352617 3.535 
245 795 -9.270449 3.642532 1.671 
255 795 -9.097425 3.655768 1.365 
265 795 -8.807957 3.335639 1.719 
275 795 -8.697556 3.101202 1.304 
285 795 -8.150632 2.553465 1.304 
295 795 -7.900341 2.346424 2.754 
305 795 -7.676516 2.677246 23.761 
315 795 -7.393888 3.020058 5.886 
325 795 -7.291047 3.134784 3.528 
335 795 -7.054455 3.453873 6.699 
345 795 -6.526075 3.667282 6.549 
355 795 -6.300561 3.130473 1.303 
365 795 -6.660781 2.283524 4.742 
375 795 -6.526816 1.865736 1.712 
385 795 -6.256626 1.956427 1.160 
395 795 -6.455120 2.199625 2.324 
405 795 -7.184661 2.197519 2.302 
415 795 -7.729189 1.949254 4.191 
425 795 -8.008965 2.381434 8.619 
435 795 -8.149990 2.635139 4.604 
445 795 -8.062692 2.619152 2.832 
455 795 -7.607103 2.684216 1.468 
465 795 -7.174943 2.031111 1.503 
475 795 -7.379328 1.534013 1.608 
485 795 -7.444660 0.724031 1.129 
495 795 -7.953213 0.644261 1.016 
505 795 -8.461767 0.564492 1.641 
515 795 -8.970321 0.484723 1.722 
525 795 -7.928181 -0.407061 1.901 
535 795 -7.698555 -1.305553 15.202 
545 795 -7.550295 -1.393492 14.697 
555 795 -7.391297 -0.753312 2.465 
565 795 -7.391321 -0.168986 1.792 
575 795 -7.438490 -0.151366 2.722 
585 795 -7.206292 0.100730 4.494 
595 795 -6.905722 -0.073239 2.859 
605 795 -6.705561 -0.077969 2.634 
615 795 -6.675599 0.730010 2.537 
625 795 -6.811760 0.608049 1.307 
635 795 -6.947921 0.486089 1.157 
645 795 -7.859580 -0.665321 1.306 
655 795 -8.017197 -1.227778 1.283 
665 795 -7.695030 -1.166924 1.577 
675 795 -7.357457 -1.128888 4.950 
685 795 -7.019884 -1.090852 2.947 
695 795 -7.004522 -0.704771 1.434 
705 795 -7.101732 -0.385460 1.757 
715 795 -7.181182 0.182171 1.905 
725 795 -7.297859 1.118486 33.182 
735 795 -6.974080 1.306949 2.027 
745 795 -7.258758 1.446438 2.206 
755 795 -9.115327 2.467090 1.315 
765 795 -8.800657 3.206094 1.404 
775 795 -8.485986 3.945098 1.162 
785 795 -6.688446 2.167815 1.735 
795 795 -6.255906 1.005615 1.806 
805 795 -6.882731 1.430782 2.075 
815 795 -7.010035 1.700910 1.462 
825 795 -6.576619 1.702399 1.967 
835 795 -5.826203 0.398306 1.192 
845 795 -5.575692 0.300992 1.446 
855 795 -5.471695 -0.225074 16.261 
865 795 -5.545378 -0.736834 23.088 
875 795 -5.515036 -0.631850 3.641 
885 795 -4.314063 0.187838 1.584 
895 795 -4.621108 0.421272 3.043 
905 795 -4.928153 0.654706 2.120 
915 795 -5.235199 0.888140 2.592 
925 795 -4.913780 0.851232 80.096 
935 795 -4.614786 0.821494 5.707 
945 795 -4.623061 0.723574 5.622 
955 795 -4.710610 0.537504 1.657 
965 795 -5.298283 0.341615 1.760 
975 795 -5.793886 0.388806 15.034 
985 795 -6.188554 0.593518 3.356 
995 795 -6.619974 1.215950 2.181 
1005 795 -7.533910 1.742953 1.344 
1015 795 -7.721776 2.588087 1.468 
1025 795 -4.665123 3.808763 1.086 
1035 795 -5.795881 3.566127 1.047 
1045 795 -6.926638 3.323490 7.884 
1055 795 -6.381164 2.537691 1.510 
1065 795 -5.269670 1.893578 20.000 
1075 795 -4.431997 1.110412 20.000 
1085 795 -4.398172 0.622877 3.720 
1095 795 -4.042296 0.555167 2.964 
1105 795 -4.059918 0.449517 21.416 
1115 795 -4.189431 -1.281329 2.833 
1125 795 -3.558836 -3.996589 2.258 
1135 795 -3.179516 -0.657656 1.289 
1145 795 -2.800196 2.681276 1.014 
1155 795 -2.420876 6.020208 1.008 
1165 795 -0.310629 4.880043 1.258 
1175 795 1.799618 3.739878 1.483 
1185 795 3.909865 2.599713 1.203 
1195 795 -1.216478 14.766945 1.216 
1205 795 -2.260902 13.273730 1.161 
1215 795 0.347347 -4.173395 2.062 
1225 795 1.719572 -3.906394 1.054 
1235 795 3.091796 -3.639394 1.035 
1245 795 4.464021 -3.372393 1.023 
1255 795 0.000000 -0.000000 1.226 
1265 795 0.000000 -0.000000 1.410 
1275 795 0.000000 -0.000000 1.153 
5 785 -11.664645 9.025084 1.001 
15 785 -7.062331 8.754655 1.001 
25 785 -2.522031 11.321217 1.031 
35 785 0.772108 14.174300 1.259 
45 785 -3.052958 11.432212 1.105 
55 785 -0.868177 8.775250 1.024 
65 785 0.725506 12.021234 1.046 
75 785 -1.186850 15.952344 1.113 
85 785 -2.540190 17.210139 1.145 
95 785 -2.527773 16.068661 1.136 
105 785 -1.290036 16.659032 1.072 
115 785 2.203082 24.151320 1.030 
125 785 5.745654 26.003512 1.174 
135 785 4.506543 20.922151 1.275 
145 785 -11.638683 20.220753 1.447 
155 785 -11.958539 11.671087 1.016 
165 785 -9.985297 5.032713 1.892 
175 785 -9.825926 3.489401 3.792 
185 785 -9.362917 4.261656 1.733 
195 785 -8.285790 6.836386 1.292 
205 785 -8.460696 5.305151 1.052 
215 785 -8.678210 2.869533 1.487 
225 785 -8.416657 2.786920 2.162 
235 785 -9.131953 3.352272 3.535 
245 785 -9.175548 3.584857 1.671 
255 785 -9.007899 3.645405 1.365 
265 785 -8.690741 3.364999 1.719 
275 785 -8.689955 3.181640 1.304 
285 785 -8.192639 2.716492 1.304 
295 785 -7.859019 2.520748 2.754 
305 785 -7.600865 2.780276 23.761 
315 785 -7.419838 3.022818 5.886 
325 785 -7.323283 3.112858 3.528 
335 785 -7.116391 3.328748 6.699 
345 785 -6.636877 3.463640 6.549 
355 785 -6.421261 2.964126 1.303 
365 785 -6.743630 2.196991 4.742 
375 785 -6.594094 1.794113 1.712 
385 785 -6.332859 1.896448 1.160 
395 785 -6.533265 2.147864 2.324 
405 785 -7.273457 2.191775 2.302 
415 785 -7.787846 1.979983 4.191 
425 785 -8.044316 2.413647 8.619 
435 785 -8.207190 2.674329 4.604 
445 785 -8.158833 2.670015 2.832 
455 785 -7.943211 2.484559 1.468 
465 785 -7.466842 2.048537 1.503 
475 785 -7.687763 1.644503 1.608 
485 785 -7.778066 1.050754 1.129 
495 785 -7.885250 0.549521 1.016 
505 785 -9.340550 0.908290 1.641 
515 785 -8.927688 0.516662 1.722 
525 785 -7.969517 -0.319183 1.901 
535 785 -7.825802 -1.095975 15.202 
545 785 -7.674669 -1.196123 14.697 
555 785 -7.549318 -0.624025 2.465 
565 785 -7.560439 -0.016221 1.792 
575 785 -7.623128 -0.004320 2.722 
585 785 -7.435898 0.191123 4.494 
595 785 -7.198005 -0.006883 2.859 
605 785 -7.039117 -0.048089 2.634 
615 785 -6.995607 0.679522 2.537 
625 785 -7.064582 0.611988 1.307 
635 785 -7.133557 0.544454 1.157 
645 785 -7.911888 -0.569881 1.306 
655 785 -7.978885 -1.098032 1.283 
665 785 -7.618065 -1.026846 1.577 
675 785 -7.297789 -1.028442 4.950 
685 785 -6.977513 -1.030037 2.947 
695 785 -6.949179 -0.681274 1.434 
705 785 -6.994052 -0.396642 1.757 
715 785 -7.084533 0.131774 1.905 
725 785 -7.238461 0.973248 33.182 
735 785 -6.872591 1.195039 2.027 
745 785 -6.667949 1.135026 2.206 
755 785 -8.189457 1.914352 1.315 
765 785 -8.779439 3.201127 1.404 
775 785 -7.846586 3.045271 1.162 
785 785 -6.514602 1.885562 1.735 
795 785 -6.372201 1.148172 1.806 
805 785 -6.943295 1.504536 2.075 
815 785 -7.067589 1.789212 1.462 
825 785 -6.656756 1.858044 1.967 
835 785 -6.100594 0.925039 1.192 
845 785 -5.707460 0.607435 1.446 
855 785 -5.597323 0.151175 16.261 
865 785 -5.566777 -0.381432 23.088 
875 785 -5.519612 -0.349160 3.641 
885 785 -4.431075 0.371060 1.584 
895 785 -4.135323 0.469334 3.043 
905 785 -5.152398 0.344201 2.120 
915 785 -5.231639 0.880786 2.592 
925 785 -5.073143 0.899054 80.096 
935 785 -4.841600 0.918675 5.707 
945 785 -4.846903 0.778412 5.622 
955 785 -4.881397 0.615845 1.657 
965 785 -5.355493 0.466070 1.760 
975 785 -5.827698 0.532522 15.034 
985 785 -6.104502 0.566380 3.356 
995 785 -6.361541 1.026183 2.181 
1005 785 -7.194250 1.581059 1.344 
1015 785 -7.434894 2.323269 1.468 
1025 785 -5.172526 3.385586 1.086 
1035 785 -6.019126 3.306188 1.047 
1045 785 -6.865725 3.226790 7.884 
1055 785 -6.392955 2.480895 1.510 
1065 785 -5.261577 1.949966 20.000 
1075 785 -4.529524 1.245759 20.000 
1085 785 -4.619286 0.788742 3.720 
1095 785 -4.334513 0.749582 2.964 
1105 785 -4.312583 0.552700 21.416 
1115 785 -4.624914 -1.223205 2.833 
1125 785 -4.013833 -2.709260 2.258 
1135 785 -3.614244 -3.874314 1.289 
1145 785 -2.009185 6.985764 1.014 
1155 785 -1.476876 3.085281 1.008 
1165 785 2.548522 1.362783 1.258 
1175 785 3.935172 2.436467 1.483 
1185 785 3.592697 3.821648 1.203 
1195 785 0.497635 9.978328 1.216 
1205 785 -2.518599 12.648716 1.161 
1215 785 -0.939874 -4.859990 2.062 
1225 785 1.312799 -7.650514 1.054 
1235 785 2.705386 -7.989359 1.035 
1245 785 2.229091 -7.271635 1.023 
1255 785 1.568239 -4.541230 1.226 
1265 785 -0.611669 -2.664351 1.410 
1275 785 0.000000 -0.000000 1.153 
5 775 -7.531908 16.569035 1.278 
15 775 -4.075490 15.741255 1.278 
25 775 -1.217638 15.483055 1.619 
35 775 -1.471365 17.572626 1.081 
45 775 -4.430040 17.497960 1.012 
55 775 -2.002703 14.944387 1.202 
65 775 -0.105788 13.733093 1.510 
75 775 -0.401149 16.176594 1.419 
85 775 -2.150095 16.858893 1.202 
95 775 -2.163038 16.928684 1.573 
105 775 -2.201339 18.209743 1.007 
115 775 -4.471323 17.418596 1.143 
125 775 2.145564 18.450383 1.121 
135 775 1.291484 17.293140 1.232 
145 775 -3.812911 12.499261 1.151 
155 775 -8.859379 5.639506 20.000 
165 775 -9.461737 3.466488 20.000 
175 775 -9.472496 2.980521 3.629 
185 775 -9.349945 3.830809 1.882 
195 775 -8.867872 4.447307 1.240 
205 775 -9.000170 3.820456 4.222 
215 775 -8.970655 2.670487 1.350 
225 775 -8.725604 2.734337 2.006 
235 775 -8.753760 3.370664 1.081 
245 775 -8.784083 3.607564 2.156 
255 775 -8.657199 3.318202 1.573 
265 775 -8.615471 3.432193 1.031 
275 775 -8.661540 3.396280 1.121 
285 775 -8.490419 3.020697 1.272 
295 775 -8.006882 2.734931 21.244 
305 775 -7.646288 2.898323 83.840 
315 775 -7.492503 2.980315 22.473 
325 775 -7.407760 3.222573 4.226 
335 775 -7.143328 3.240849 1.782 
345 775 -7.010475 3.109470 1.276 
355 775 -7.187942 2.610932 1.330 
365 775 -7.064756 1.999648 2.394 
375 775 -6.819090 1.720028 1.611 
385 775 -6.606392 1.864983 1.185 
395 775 -6.771191 2.045497 1.728 
405 775 -7.635433 2.174945 1.268 
415 775 -8.051126 2.195800 2.329 
425 775 -8.230098 2.502472 3.785 
435 775 -8.356874 2.707926 2.064 
445 775 -8.317432 2.764318 2.037 
455 775 -8.377216 2.226138 2.566 
465 775 -8.355798 1.827183 2.257 
475 775 -8.455239 1.702201 1.889 
485 775 -8.410395 1.433607 2.299 
495 775 -8.230837 0.998805 1.074 
505 775 -8.779541 0.969104 2.134 
515 775 -8.702949 0.647541 4.365 
525 775 -8.132659 0.003008 20.000 
535 775 -7.947538 -0.570512 8.026 
545 775 -7.841488 -0.665473 17.808 
555 775 -7.708500 -0.025814 2.775 
565 775 -7.700558 0.594788 3.216 
575 775 -7.757779 0.560030 2.018 
585 775 -7.870663 -0.050048 1.538 
595 775 -7.629877 -0.044339 1.881 
605 775 -7.594635 0.288004 2.993 
615 775 -7.767630 0.803584 2.271 
625 775 -7.578831 0.594862 1.284 
635 775 -7.390032 0.386139 1.039 
645 775 -8.007251 -0.756737 1.004 
655 775 -7.671785 -0.844542 1.507 
665 775 -7.237790 -1.023298 2.214 
675 775 -7.043233 -0.878203 11.045 
685 775 -6.899807 -0.752550 2.291 
695 775 -6.881970 -0.162997 3.585 
705 775 -6.903113 -0.135626 2.641 
715 775 -6.826759 -0.068163 1.041 
725 775 -7.093859 0.553101 2.244 
735 775 -6.571556 0.687769 2.108 
745 775 -6.299809 0.739986 1.376 
755 775 -7.440411 1.346178 1.115 
765 775 -8.210416 2.315137 1.180 
775 775 -7.257512 2.144006 1.199 
785 775 -6.449504 1.426580 1.422 
795 775 -6.815553 1.329174 1.398 
805 775 -6.946330 1.571290 2.611 
815 775 -6.893441 1.536066 1.690 
825 775 -6.500024 1.489734 1.480 
835 775 -6.279316 1.124487 1.178 
845 775 -6.060051 0.595633 1.926 
855 775 -5.601981 0.773408 2.638 
865 775 -5.501992 0.639794 2.394 
875 775 -5.581336 0.472436 1.722 
885 775 -4.951203 0.589054 1.423 
895 775 -4.703165 0.721687 2.144 
905 775 -4.803247 0.791634 6.142 
915 775 -5.122219 0.885438 1.662 
925 775 -5.294201 1.110152 1.805 
935 775 -5.407571 1.085579 1.564 
945 775 -5.298394 0.827218 1.962 
955 775 -4.993126 0.697486 2.397 
965 775 -5.313946 1.173979 3.259 
975 775 -5.949874 1.006798 1.090 
985 775 -6.198403 0.475876 1.035 
995 775 -5.939779 0.757303 2.194 
1005 775 -6.247771 0.686743 5.406 
1015 775 -6.381580 1.344916 10.273 
1025 775 -6.484840 2.803280 1.792 
1035 775 -6.598206 2.791145 1.966 
1045 775 -6.711571 2.779010 7.435 
1055 775 -6.460214 2.375369 1.597 
1065 775 -5.629522 2.050369 1.284 
1075 775 -4.735174 1.562536 20.000 
1085 775 -4.909768 1.157322 5.280 
1095 775 -4.834188 1.172771 2.950 
1105 775 -4.743571 1.116833 4.394 
1115 775 -4.742106 -0.276919 1.483 
1125 775 -4.468829 -1.421931 3.491 
1135 775 -3.758547 -1.199134 1.371 
1145 775 -1.782682 4.127143 1.397 
1155 775 -0.839277 2.371682 1.750 
1165 775 1.312340 2.003865 1.729 
1175 775 2.786036 2.836077 1.689 
1185 775 3.261300 2.694341 1.041 
1195 775 0.752620 7.088581 1.783 
1205 775 -2.276389 7.567348 1.142 
1215 775 -2.227095 -5.546586 1.581 
1225 775 -1.808130 -8.897124 1.386 
1235 775 -0.708665 -9.818242 1.848 
1245 775 0.011035 -10.527569 1.912 
1255 775 -1.807421 -8.796756 1.068 
1265 775 0.046825 -6.858002 1.051 
1275 775 0.000000 -0.000000 1.008 
5 765 -3.565280 23.996175 1.034 
15 765 -1.651426 22.089836 1.034 
25 765 0.086756 19.644894 1.398 
35 765 -1.829753 20.616429 1.040 
45 765 -2.986994 18.928527 1.005 
55 765 -1.711642 16.139104 1.192 
65 765 -0.937083 15.444951 1.955 
75 765 -1.200534 15.760035 1.143 
85 765 -1.760001 16.507647 1.053 
95 765 -2.118418 16.770840 1.498 
105 765 -2.476836 17.034033 1.527 
115 765 -3.737922 13.620165 1.087 
125 765 -0.180233 12.574315 1.028 
135 765 0.537148 13.829327 1.066 
145 765 -3.255751 9.722624 1.090 
155 765 -7.747339 4.082001 2.756 
165 765 -8.673714 2.347968 3.664 
175 765 -9.262440 2.519149 4.636 
185 765 -9.266417 3.088174 1.240 
195 765 -9.012846 3.522248 8.034 
205 765 -9.048454 3.344857 1.935 
215 765 -9.035861 2.672975 1.672 
225 765 -8.685716 2.757249 5.025 
235 765 -8.566193 3.291934 1.209 
245 765 -8.664952 3.572707 1.825 
255 765 -8.557408 3.336994 1.598 
265 765 -8.458294 3.696362 1.618 
275 765 -9.286053 3.594380 1.719 
285 765 -9.485505 3.278006 1.273 
295 765 -8.297411 3.163641 3.531 
305 765 -7.720172 3.034670 20.000 
315 765 -7.659850 2.932496 5.124 
325 765 -7.767977 2.889920 3.146 
335 765 -7.794042 2.758438 2.261 
345 765 -7.771300 2.463178 2.082 
355 765 -7.647401 2.124331 2.204 
365 765 -7.301804 1.741012 2.288 
375 765 -7.061034 1.529393 2.448 
385 765 -6.867786 1.757941 2.993 
395 765 -7.089568 1.916240 2.597 
405 765 -8.066582 2.054950 1.821 
415 765 -8.379035 2.302563 1.627 
425 765 -8.654119 2.358528 3.268 
435 765 -8.720691 2.539148 5.080 
445 765 -8.450563 2.459678 1.689 
455 765 -8.553618 1.851307 2.323 
465 765 -8.672884 1.702956 2.213 
475 765 -8.765049 1.850649 1.798 
485 765 -8.700299 1.634337 1.858 
495 765 -8.526939 1.322524 1.835 
505 765 -8.847790 0.959084 4.663 
515 765 -8.811918 0.676659 7.544 
525 765 -8.508711 0.417854 12.108 
535 765 -8.185719 0.173167 2.461 
545 765 -7.979239 0.138231 2.711 
555 765 -7.886766 0.507448 3.832 
565 765 -7.910339 0.975520 3.905 
575 765 -8.124779 0.897426 3.483 
585 765 -8.343700 0.138196 2.177 
595 765 -8.197216 0.205172 4.865 
605 765 -8.157071 0.286696 6.005 
615 765 -8.169581 0.252975 3.010 
625 765 -7.792540 0.324296 1.669 
635 765 -7.615663 0.354979 2.860 
645 765 -7.610357 -0.080018 2.085 
655 765 -7.367834 -0.492665 1.965 
665 765 -6.974214 -0.139582 2.409 
675 765 -6.690298 0.030849 1.291 
685 765 -6.654501 -0.081989 2.309 
695 765 -6.563641 -0.167499 6.045 
705 765 -6.450169 -0.074713 6.278 
715 765 -6.512817 -0.428152 1.432 
725 765 -6.808016 0.100982 1.241 
735 765 -6.390332 0.314685 2.157 
745 765 -5.931669 0.344946 3.921 
755 765 -6.734896 0.812286 2.692 
765 765 -7.348424 1.456898 1.035 
775 765 -6.960559 1.593647 2.283 
785 765 -6.480312 1.586369 2.895 
795 765 -6.699697 1.510686 1.430 
805 765 -6.686067 1.386638 3.894 
815 765 -6.657080 1.250757 2.357 
825 765 -6.247072 0.941268 2.771 
835 765 -6.125684 0.526769 2.307 
845 765 -6.106704 0.254800 2.428 
855 765 -5.697560 0.574919 1.169 
865 765 -5.635780 0.613587 1.372 
875 765 -5.386836 0.695128 5.220 
885 765 -5.145961 0.934780 5.326 
895 765 -4.891906 0.939252 3.939 
905 765 -4.748415 0.795696 101.152 
915 765 -5.102980 0.833208 4.283 
925 765 -5.515259 1.321251 3.056 
935 765 -5.743627 1.306228 1.532 
945 765 -5.617302 0.949986 2.389 
955 765 -4.980624 0.726120 2.616 
965 765 -4.989762 1.180830 2.195 
975 765 -5.625399 0.996238 1.186 
985 765 -5.876316 0.684132 3.052 
995 765 -5.697195 0.390443 2.158 
1005 765 -6.079051 0.544335 1.003 
1015 765 -6.350686 1.116257 1.024 
1025 765 -6.040712 2.111916 1.480 
1035 765 -6.247115 2.160033 3.982 
1045 765 -6.453518 2.208150 2.003 
1055 765 -6.717097 2.193701 1.678 
1065 765 -6.105232 2.409459 1.456 
1075 765 -5.563146 2.298944 1.280 
1085 765 -5.994510 1.901763 2.578 
1095 765 -5.929794 1.684271 2.924 
1105 765 -5.642125 1.551519 12.050 
1115 765 -5.325266 1.216938 3.581 
1125 765 -4.851097 1.048488 46.788 
1135 765 -3.896412 1.446708 20.000 
1145 765 -1.740122 1.116090 1.094 
1155 765 -0.201677 1.658083 1.450 
1165 765 1.041776 2.024192 1.051 
1175 765 2.660507 1.528193 1.030 
1185 765 2.936544 1.041378 1.118 
1195 765 1.537853 2.751060 1.137 
1205 765 -1.434352 1.719521 1.106 
1215 765 -3.068234 -6.216768 1.135 
1225 765 -3.074602 -8.853392 1.764 
1235 765 -1.923268 -11.943303 1.727 
1245 765 -1.700397 -10.857622 2.267 
1255 765 -1.477526 -9.771940 1.973 
1265 765 2.351576 -9.097037 1.154 
1275 765 0.899469 -10.563751 1.061 
5 755 0.512650 30.801067 1.052 
15 755 0.772637 28.438418 1.052 
25 755 0.625813 23.196323 1.258 
35 755 -0.466396 22.208865 1.304 
45 755 -1.543948 20.359095 1.215 
55 755 -1.420581 17.333820 1.625 
65 755 -1.750282 16.362551 2.745 
75 755 -1.999919 15.343476 1.133 
85 755 -1.783667 15.273837 1.236 
95 755 0.012052 14.256149 1.403 
105 755 1.807770 13.238460 1.151 
115 755 -1.500499 9.835630 1.051 
125 755 -2.048862 7.652662 1.191 
135 755 -0.559572 11.667898 1.178 
145 755 -3.340051 8.167344 1.090 
155 755 -6.951342 3.409957 1.004 
165 755 -8.503408 2.571093 2.843 
175 755 -8.926054 2.408442 2.387 
185 755 -8.749887 2.468246 5.270 
195 755 -8.632274 2.906316 18.800 
205 755 -8.797227 2.988278 1.790 
215 755 -8.888026 2.598789 1.636 
225 755 -8.483740 2.701691 5.831 
235 755 -8.356674 3.125925 2.306 
245 755 -8.764632 3.266603 1.458 
255 755 -8.474949 3.327501 2.109 
265 755 -8.525445 3.545896 1.863 
275 755 -9.847973 3.650172 1.115 
285 755 -9.647447 3.274838 1.348 
295 755 -8.381022 3.415792 2.159 
305 755 -7.709442 3.153253 2.285 
315 755 -7.808503 2.926696 2.424 
325 755 -8.078017 2.647664 2.778 
335 755 -8.110929 2.273619 2.115 
345 755 -8.021115 1.554249 4.149 
355 755 -7.637267 1.275135 2.819 
365 755 -7.531789 1.404742 2.292 
375 755 -7.436064 1.234521 6.726 
385 755 -7.319392 1.485248 3.808 
395 755 -7.621802 1.531337 2.728 
405 755 -8.300537 1.607265 1.170 
415 755 -8.579090 2.091354 2.565 
425 755 -8.846701 2.218387 2.289 
435 755 -8.965922 2.279381 2.188 
445 755 -8.532247 2.119886 2.143 
455 755 -8.566570 1.973404 2.553 
465 755 -8.866261 1.845823 2.268 
475 755 -8.884475 1.797571 3.932 
485 755 -8.902479 1.594480 2.412 
495 755 -8.930894 1.285117 1.763 
505 755 -8.969491 0.963235 1.760 
515 755 -8.906586 0.896478 2.452 
525 755 -8.778663 0.995215 2.730 
535 755 -8.011668 0.526545 2.227 
545 755 -7.710268 0.269651 1.691 
555 755 -7.816160 0.538186 1.880 
565 755 -7.756763 0.905837 2.467 
575 755 -8.248344 0.296574 2.535 
585 755 -8.376434 -0.197110 3.127 
595 755 -8.285307 -0.503146 3.204 
605 755 -8.199177 -0.644393 5.432 
615 755 -7.988515 -0.766057 8.948 
625 755 -7.856473 -0.595333 2.137 
635 755 -7.610074 -0.118716 1.950 
645 755 -7.668952 0.393746 1.371 
655 755 -7.423271 0.332959 4.621 
665 755 -7.153720 0.268193 1.731 
675 755 -6.753896 -0.021625 1.374 
685 755 -6.477704 -0.134194 2.290 
695 755 -6.339727 -0.394433 2.505 
705 755 -6.323177 -0.556406 7.261 
715 755 -6.536022 -0.720500 2.376 
725 755 -6.708048 -0.305818 1.460 
735 755 -6.292675 -0.065007 4.032 
745 755 -6.266025 0.488860 2.432 
755 755 -6.546612 0.560440 2.463 
765 755 -7.046171 0.691331 2.163 
775 755 -6.827545 1.112020 2.050 
785 755 -6.533811 1.291067 2.478 
795 755 -6.735760 1.351734 1.490 
805 755 -6.726645 1.227346 2.729 
815 755 -6.482113 0.906486 3.277 
825 755 -6.192992 0.775531 3.976 
835 755 -6.085019 -0.065090 1.200 
845 755 -6.006744 -0.122196 1.171 
855 755 -5.922156 0.132106 1.442 
865 755 -5.973946 0.326214 1.452 
875 755 -5.822705 0.678740 3.872 
885 755 -5.786039 0.987877 6.127 
895 755 -5.448077 0.889357 2.682 
905 755 -5.123998 0.716522 20.000 
915 755 -5.440799 0.680373 3.380 
925 755 -6.070743 0.991471 1.591 
935 755 -6.186336 1.110331 1.670 
945 755 -6.039086 0.677890 1.066 
955 755 -5.352157 0.334161 1.592 
965 755 -5.056923 0.612991 1.353 
975 755 -5.260561 0.926633 1.874 
985 755 -5.517379 1.153111 1.373 
995 755 -5.539171 1.142784 1.506 
1005 755 -5.947893 1.072782 1.215 
1015 755 -6.316943 1.231309 1.649 
1025 755 -6.425104 1.718366 2.846 
1035 755 -6.149062 2.366630 40.777 
1045 755 -6.268881 2.192149 2.395 
1055 755 -7.054861 2.148113 2.360 
1065 755 -6.528888 2.582197 2.067 
1075 755 -6.193741 2.943743 1.539 
1085 755 -6.647716 2.497270 1.794 
1095 755 -7.101691 2.050796 1.190 
1105 755 -7.069086 1.761810 2.593 
1115 755 -6.293586 1.515464 20.000 
1125 755 -5.809767 1.709036 20.000 
1135 755 -4.362978 1.726046 98.875 
1145 755 -2.916189 1.743055 1.071 
1155 755 -1.964463 2.481249 1.171 
1165 755 -0.264467 1.561810 1.003 
1175 755 0.490905 1.471172 1.054 
1185 755 2.611787 -0.611584 1.217 
1195 755 2.581052 -1.376795 1.152 
1205 755 0.201656 -3.468213 1.041 
1215 755 -2.811297 -6.656462 1.143 
1225 755 -2.951267 -10.257872 1.474 
1235 755 -1.185391 -12.168140 1.045 
1245 755 -0.536420 -11.142831 1.351 
1255 755 0.112550 -10.117523 1.041 
1265 755 1.210865 -5.901469 1.700 
1275 755 0.823794 -6.724399 1.871 
5 745 1.160601 27.422807 1.222 
15 745 0.779182 32.162307 1.222 
25 745 1.080382 24.400443 2.128 
35 745 -0.110181 22.238255 2.006 
45 745 -0.945915 20.244073 1.065 
55 745 -2.353984 17.374722 1.002 
65 745 -2.823647 15.202498 3.016 
75 745 -3.130144 14.045642 2.950 
85 745 -1.746015 13.689792 1.280 
95 745 2.157121 13.507278 1.395 
105 745 2.936653 9.950311 1.041 
115 745 -1.453712 7.521709 1.141 
125 745 -1.704027 7.455640 1.164 
135 745 -1.656293 9.506470 1.964 
145 745 -4.041370 7.177495 2.159 
155 745 -6.505028 2.875012 2.401 
165 745 -7.699107 2.232411 1.495 
175 745 -8.057282 1.805981 1.879 
185 745 -8.155607 2.035037 4.213 
195 745 -8.189906 2.534972 5.547 
205 745 -8.380931 2.743737 1.298 
215 745 -8.473151 2.606278 1.234 
225 745 -7.877313 2.802533 1.338 
235 745 -8.261173 2.927925 2.094 
245 745 -8.779156 2.894745 3.153 
255 745 -8.801704 2.965500 2.135 
265 745 -8.592597 3.395429 1.254 
275 745 -9.379788 3.385257 2.169 
285 745 -9.809388 3.271671 1.323 
295 745 -8.202707 3.442247 1.416 
305 745 -7.677635 3.186824 1.463 
315 745 -7.711454 2.871936 2.302 
325 745 -8.223377 2.536731 1.094 
335 745 -8.134816 1.752917 1.093 
345 745 -8.046255 0.969103 2.937 
355 745 -7.819594 0.713580 3.885 
365 745 -7.989471 0.969680 1.726 
375 745 -8.170405 1.103696 1.527 
385 745 -8.335491 1.222996 2.347 
395 745 -8.512179 1.149331 1.638 
405 745 -8.639343 1.303062 1.231 
415 745 -8.584829 1.782126 4.485 
425 745 -8.898754 1.964876 5.990 
435 745 -8.834945 2.007776 1.561 
445 745 -8.729069 1.860520 2.731 
455 745 -8.904490 1.800124 5.952 
465 745 -9.403518 1.557407 2.195 
475 745 -9.513608 1.451882 2.493 
485 745 -9.352264 1.288134 4.325 
495 745 -9.102447 0.784649 2.150 
505 745 -8.823133 0.635897 1.600 
515 745 -8.600228 1.093975 2.147 
525 745 -8.579387 0.906375 1.452 
535 745 -7.944758 0.073939 1.955 
545 745 -7.888794 -0.350212 3.339 
555 745 -7.787323 0.185919 1.950 
565 745 -7.602333 0.600199 2.426 
575 745 -7.725602 -0.121955 2.318 
585 745 -7.979768 -1.065503 2.542 
595 745 -7.870929 -1.716094 1.255 
605 745 -7.710928 -1.258076 2.325 
615 745 -7.564283 -1.294660 2.344 
625 745 -7.590979 -0.946517 1.823 
635 745 -7.666281 0.156878 1.799 
645 745 -7.984471 1.153560 2.593 
655 745 -7.881340 1.101617 1.997 
665 745 -7.642523 0.216901 1.923 
675 745 -7.023563 -0.171115 1.854 
685 745 -6.592110 -0.625090 2.304 
695 745 -6.613685 -0.837434 1.625 
705 745 -6.669124 -0.911572 1.961 
715 745 -6.761925 -0.914451 2.740 
725 745 -6.715193 -0.641747 3.046 
735 745 -6.524294 -0.165295 3.975 
745 745 -6.664610 0.251533 2.921 
755 745 -7.121216 0.356807 2.916 
765 745 -7.102652 0.155287 3.661 
775 745 -6.800055 0.392172 1.711 
785 745 -6.696973 0.632293 1.796 
795 745 -6.837734 0.938291 1.265 
805 745 -6.883182 1.038193 2.445 
815 745 -6.552095 0.835198 2.562 
825 745 -6.312423 0.434404 6.714 
835 745 -6.270981 -0.223159 6.788 
845 745 -6.214419 -0.338986 1.134 
855 745 -6.239984 -0.158287 1.472 
865 745 -6.369637 0.215893 1.879 
875 745 -6.498863 0.728451 2.975 
885 745 -6.554905 0.991441 2.282 
895 745 -6.219062 0.686053 7.501 
905 745 -5.835056 0.532450 12.221 
915 745 -5.895688 0.593009 2.972 
925 745 -6.354417 0.765952 1.567 
935 745 -6.732679 0.879422 1.331 
945 745 -6.472485 0.314831 1.044 
955 745 -5.748849 -0.139440 1.260 
965 745 -5.167391 0.025145 1.310 
975 745 -4.987965 1.017101 1.459 
985 745 -5.144065 1.661161 2.518 
995 745 -5.267654 1.987977 2.151 
1005 745 -5.716363 1.787363 1.168 
1015 745 -6.234159 1.554735 12.697 
1025 745 -6.461848 1.684694 4.075 
1035 745 -6.381567 2.122227 1.880 
1045 745 -6.645918 2.565237 4.588 
1055 745 -6.784821 2.035490 2.194 
1065 745 -6.389292 2.136037 1.358 
1075 745 -5.864613 2.921629 1.121 
1085 745 -6.204000 2.632761 1.043 
1095 745 -6.543387 2.343893 1.038 
1105 745 -6.795402 1.695000 1.375 
1115 745 -6.282212 1.449890 4.369 
1125 745 -6.161152 1.653683 5.993 
1135 745 -5.204132 1.633428 4.646 
1145 745 -4.247112 1.613174 1.062 
1155 745 -3.187727 1.346864 1.962 
1165 745 -1.570710 1.099429 1.735 
1175 745 -1.053479 0.167152 1.104 
1185 745 2.775042 -0.988975 1.032 
1195 745 2.838013 -1.204600 1.075 
1205 745 1.539161 -3.072514 1.007 
1215 745 0.207121 -5.690655 1.177 
1225 745 -0.788901 -9.236948 1.377 
1235 745 2.437614 -11.160590 1.056 
1245 745 4.006094 -11.904775 1.308 
1255 745 2.242042 -7.750687 1.050 
1265 745 0.070154 -2.705901 1.145 
1275 745 0.748119 -2.885047 1.044 
5 735 1.808552 24.044547 1.097 
15 735 1.192668 32.544644 1.097 
25 735 -1.825718 23.068467 1.119 
35 735 -1.890017 20.662788 1.368 
45 735 -3.210288 17.856521 1.181 
55 735 -5.213491 15.015488 1.341 
65 735 -6.208851 12.682829 1.100 
75 735 -4.429756 13.277796 2.405 
85 735 -3.755321 13.596116 2.040 
95 735 0.554142 12.666089 1.291 
105 735 1.804527 8.461619 1.118 
115 735 -1.406925 5.207788 1.025 
125 735 -2.568279 6.791825 1.801 
135 735 -3.729632 8.375862 1.699 
145 735 -5.277979 6.201005 2.197 
155 735 -6.615556 2.749287 3.890 
165 735 -7.109132 2.278819 3.672 
175 735 -7.353587 2.023688 1.537 
185 735 -7.643689 1.987213 2.477 
195 735 -7.681070 2.490727 3.727 
205 735 -7.900310 2.656684 1.725 
215 735 -8.042445 2.668406 1.816 
225 735 -8.012823 2.821106 2.390 
235 735 -8.322923 2.891400 1.931 
245 735 -8.693114 2.821915 3.783 
255 735 -8.726935 2.902271 3.998 
265 735 -8.732249 3.189768 3.435 
275 735 -8.802474 3.258645 1.237 
285 735 -8.538193 3.260157 1.056 
295 735 -8.125081 3.079109 2.003 
305 735 -7.953328 2.967559 3.715 
315 735 -8.124015 2.648109 2.485 
325 735 -8.412060 2.436540 3.145 
335 735 -8.347753 2.282009 1.222 
345 735 -8.283447 2.127478 1.100 
355 735 -7.598811 0.799696 1.006 
365 735 -8.368717 0.914614 1.012 
375 735 -8.828278 1.140252 1.451 
385 735 -8.894466 1.021004 2.110 
395 735 -9.119344 1.037964 1.937 
405 735 -9.039220 1.039662 1.434 
415 735 -8.811258 1.149321 2.122 
425 735 -9.142328 1.555213 2.422 
435 735 -8.602350 1.384588 3.000 
445 735 -8.670865 1.494372 3.498 
455 735 -8.897760 1.682914 4.963 
465 735 -9.412596 1.346929 2.845 
475 735 -9.550486 1.042960 2.370 
485 735 -9.356680 0.638893 12.309 
495 735 -9.181382 0.180325 2.478 
505 735 -8.818648 0.292851 2.770 
515 735 -8.573607 0.649750 2.181 
525 735 -8.380110 0.817536 2.016 
535 735 -8.388027 -0.658562 1.994 
545 735 -8.670485 -0.807750 3.064 
555 735 -8.494341 0.174136 2.636 
565 735 -7.902213 0.755916 1.870 
575 735 -7.640949 -0.052525 2.349 
585 735 -7.454174 -1.071922 1.459 
595 735 -7.656775 -1.525579 1.565 
605 735 -7.101704 -1.548500 3.051 
615 735 -6.947685 -1.458736 20.000 
625 735 -7.020424 -0.828837 1.481 
635 735 -7.820881 0.685452 2.096 
645 735 -8.403021 1.994311 2.079 
655 735 -8.339409 1.870275 3.657 
665 735 -8.197473 0.338590 1.428 
675 735 -7.544257 -0.096132 1.095 
685 735 -6.820296 -0.601614 1.357 
695 735 -6.902451 -1.079608 1.636 
705 735 -7.013114 -1.057489 1.610 
715 735 -6.996582 -0.891922 3.466 
725 735 -6.701324 -0.508350 3.544 
735 735 -6.426449 -0.091495 3.956 
745 735 -6.495222 0.164827 2.325 
755 735 -6.923238 0.214409 3.255 
765 735 -6.800133 -0.135901 15.701 
775 735 -6.557579 -0.017992 20.000 
785 735 -6.609201 0.280193 1.059 
795 735 -6.665127 0.580220 1.494 
805 735 -6.716031 0.819067 1.131 
815 735 -6.380769 0.454474 2.041 
825 735 -6.353156 0.045250 1.964 
835 735 -6.310440 -0.374705 2.581 
845 735 -6.155351 -0.243265 2.243 
855 735 -6.051011 0.091063 3.084 
865 735 -6.063249 0.315147 2.873 
875 735 -6.160764 0.660809 3.296 
885 735 -6.389526 0.874317 2.559 
895 735 -6.343185 0.875333 1.171 
905 735 -6.049966 0.495427 1.680 
915 735 -5.892253 0.380188 3.880 
925 735 -6.327263 0.601748 1.712 
935 735 -6.777647 0.902750 1.387 
945 735 -6.618926 0.204303 1.024 
955 735 -6.112150 -0.426496 3.073 
965 735 -5.403594 -0.439077 3.568 
975 735 -4.852704 0.986105 1.945 
985 735 -4.976695 2.034688 2.717 
995 735 -5.289490 2.362043 4.104 
1005 735 -5.416244 2.374810 1.747 
1015 735 -5.904537 1.750847 3.063 