TITLE = "B00304"
VARIABLES = "x", "y", "u", "v", "sn"
ZONE T="Frame 0", I=128, J=80
5 795 0.000000 -0.000000 1.540 
15 795 0.000000 -0.000000 1.540 
25 795 0.000000 -0.000000 1.093 
35 795 0.443488 -0.580698 1.013 
45 795 0.736766 -0.679920 1.185 
55 795 1.030045 -0.779142 1.179 
65 795 1.323323 -0.878364 1.027 
75 795 1.616602 -0.977587 1.033 
85 795 0.796535 0.770915 1.155 
95 795 -0.023531 2.519416 1.085 
105 795 -0.843598 4.267917 1.122 
115 795 -1.663664 6.016419 1.196 
125 795 -2.483731 7.764920 1.214 
135 795 -3.303798 9.513421 1.051 
145 795 -4.034662 8.218782 1.075 
155 795 -4.765527 6.924143 1.020 
165 795 -4.862515 5.337139 1.056 
175 795 -4.870592 1.425941 20.000 
185 795 -4.866917 1.557123 13.328 
195 795 -4.413383 1.967142 3.433 
205 795 -4.076197 2.156987 2.690 
215 795 -4.193622 1.513962 2.817 
225 795 -5.221242 0.596002 2.739 
235 795 -5.542723 0.427453 9.583 
245 795 -5.004547 0.959605 2.697 
255 795 -4.853380 1.131252 1.348 
265 795 -4.690756 0.503671 1.245 
275 795 -4.192359 0.490540 4.831 
285 795 -3.439665 0.419361 2.844 
295 795 -2.840224 0.459460 3.022 
305 795 -2.993427 0.464402 4.316 
315 795 -3.146578 0.333850 3.037 
325 795 -3.229453 -0.142390 1.681 
335 795 -3.486730 -0.528609 2.736 
345 795 -3.351532 -0.465267 2.555 
355 795 -3.227553 -0.077180 3.225 
365 795 -3.409943 0.422726 1.239 
375 795 -3.865367 0.631213 3.254 
385 795 -3.847404 0.696371 1.817 
395 795 -3.829440 0.761529 1.439 
405 795 -3.811476 0.826687 3.699 
415 795 -3.850192 0.573538 2.740 
425 795 -3.994431 0.367971 2.771 
435 795 -4.270159 0.099294 2.742 
445 795 -4.469860 -0.247691 2.235 
455 795 -4.233603 -0.266301 1.069 
465 795 -3.530243 -0.066613 1.224 
475 795 -3.525013 0.052260 1.324 
485 795 -3.890272 0.068474 1.101 
495 795 -4.260548 -0.043325 1.858 
505 795 -4.800318 -0.364879 1.892 
515 795 -4.385452 -0.339039 1.477 
525 795 -3.799006 -0.093677 2.446 
535 795 -3.640589 0.479728 2.832 
545 795 -3.946731 0.812884 1.667 
555 795 -3.848211 1.115811 1.348 
565 795 -3.657487 1.440581 1.012 
575 795 -3.491553 1.553726 1.702 
585 795 -3.396766 1.277750 1.701 
595 795 -3.301978 1.001773 1.250 
605 795 -3.767191 2.067494 2.017 
615 795 -3.968395 2.498924 10.844 
625 795 -3.465578 2.285285 67.072 
635 795 -2.911474 2.182633 2.532 
645 795 -2.171016 2.110398 1.436 
655 795 -2.538816 1.546640 1.017 
665 795 -2.860824 1.575609 1.688 
675 795 -3.182832 1.604577 1.926 
685 795 -3.749874 1.948484 1.799 
695 795 -4.666649 1.708413 2.358 
705 795 -5.242945 0.171724 1.398 
715 795 -5.795962 0.614205 1.019 
725 795 -6.348978 1.056686 1.020 
735 795 -6.901995 1.499167 3.411 
745 795 -5.999835 1.358357 2.454 
755 795 -5.452907 0.728685 3.807 
765 795 -5.271098 0.576670 1.662 
775 795 -4.656812 1.066298 2.058 
785 795 -3.742426 1.324953 2.550 
795 795 -3.602514 1.352601 2.787 
805 795 -3.981719 2.166348 1.498 
815 795 -4.302562 3.061014 1.487 
825 795 -6.712756 2.847234 8.031 
835 795 -12.829444 1.762594 1.106 
845 795 -16.937945 0.683891 1.488 
855 795 -16.476056 0.113548 1.081 
865 795 -5.923824 0.208974 1.615 
875 795 -5.772098 0.511777 1.987 
885 795 -5.980302 0.702872 3.041 
895 795 -6.120222 0.552644 3.566 
905 795 -6.108224 0.175606 2.635 
915 795 -6.208528 0.386458 1.983 
925 795 -6.670606 0.786662 2.096 
935 795 -6.388870 0.928656 1.615 
945 795 -5.511708 0.859687 1.698 
955 795 -5.679272 1.110035 3.275 
965 795 -5.542953 0.770645 2.962 
975 795 -4.718993 -0.062765 1.090 
985 795 -1.681532 -0.384657 1.352 
995 795 -1.030727 0.127339 1.450 
1005 795 -0.379922 0.639335 2.979 
1015 795 -3.482795 1.018214 37.510 
1025 795 -5.277436 1.210566 20.000 
1035 795 -6.255171 1.147359 2.160 
1045 795 -6.950578 -3.468545 2.695 
1055 795 -7.645985 -8.084449 2.079 
1065 795 -8.341391 -12.700353 1.123 
1075 795 -7.235248 -12.880718 1.001 
1085 795 -6.064285 -1.293371 1.222 
1095 795 -5.966107 0.558092 1.064 
1105 795 -4.622645 0.838285 1.133 
1115 795 -3.279182 1.118478 1.063 
1125 795 -0.482184 0.956010 1.005 
1135 795 2.814407 1.775706 1.277 
1145 795 6.110998 2.595402 1.370 
1155 795 12.248738 10.032905 1.192 
1165 795 17.304149 17.883221 1.548 
1175 795 17.412350 18.152700 1.030 
1185 795 11.123870 12.726083 1.176 
1195 795 10.555609 8.557787 1.278 
1205 795 14.160723 2.930787 1.159 
1215 795 10.543721 0.966773 1.188 
1225 795 6.926718 -0.997241 1.104 
1235 795 3.309715 -2.961254 1.684 
1245 795 -7.273337 -3.216018 1.189 
1255 795 -6.252534 -4.203978 1.095 
1265 795 2.416393 1.429413 1.145 
1275 795 2.616176 1.319517 1.065 
5 785 12.389186 11.042751 1.540 
15 785 11.460323 11.228832 1.540 
25 785 13.976403 13.021242 1.093 
35 785 12.058841 11.008428 1.013 
45 785 5.443146 1.447371 1.185 
55 785 3.891427 -0.442811 1.179 
65 785 4.207726 0.046972 1.027 
75 785 3.432714 1.488565 1.033 
85 785 0.905335 2.315964 1.155 
95 785 1.062823 3.008968 1.085 
105 785 0.242757 4.757469 1.122 
115 785 -0.577310 6.505970 1.196 
125 785 -1.425151 9.232969 1.214 
135 785 -1.670894 10.004663 1.051 
145 785 -2.926739 9.752101 1.075 
155 785 -4.182585 9.499540 1.020 
165 785 -4.373185 6.098553 1.056 
175 785 -4.720475 2.577169 20.000 
185 785 -4.862633 2.242105 13.328 
195 785 -4.466854 2.410899 3.433 
205 785 -4.185020 2.439877 2.690 
215 785 -4.268824 1.749617 2.817 
225 785 -5.218915 0.820877 2.739 
235 785 -5.389916 0.590344 9.583 
245 785 -4.901505 1.101141 2.697 
255 785 -4.778284 1.215982 1.348 
265 785 -4.654943 0.538030 1.245 
275 785 -4.145762 0.431944 4.831 
285 785 -3.469306 0.338986 2.844 
295 785 -2.922385 0.312774 3.022 
305 785 -3.153006 0.241116 4.316 
315 785 -3.314381 0.057603 3.037 
325 785 -3.318463 -0.367860 1.681 
335 785 -3.512372 -0.759830 2.736 
345 785 -3.403759 -0.688791 2.555 
355 785 -3.360370 -0.187540 3.225 
365 785 -3.451677 0.371600 1.239 
375 785 -3.968585 0.642095 3.254 
385 785 -4.214835 0.392175 1.817 
395 785 -4.170359 0.651681 1.439 
405 785 -3.901223 0.851617 3.699 
415 785 -4.019849 0.579528 2.740 
425 785 -4.037689 0.488751 2.771 
435 785 -4.290569 0.245936 2.742 
445 785 -4.495919 -0.107312 2.235 
455 785 -4.317643 -0.212997 1.069 
465 785 -3.625384 -0.001814 1.224 
475 785 -3.698653 0.095963 1.324 
485 785 -4.143999 0.062983 1.101 
495 785 -4.493752 -0.049763 1.858 
505 785 -4.929320 -0.320220 1.892 
515 785 -4.486740 -0.265653 1.477 
525 785 -3.936669 -0.080954 2.446 
535 785 -3.693944 0.450110 2.832 
545 785 -3.895917 0.759937 1.667 
555 785 -3.843608 0.896554 1.348 
565 785 -3.736422 1.255778 1.012 
575 785 -3.554266 1.518858 1.702 
585 785 -3.365049 0.979798 1.701 
595 785 -3.447254 1.379402 1.250 
605 785 -3.827650 2.218919 2.017 
615 785 -4.019742 2.563518 10.844 
625 785 -3.576938 2.239946 67.072 
635 785 -3.069289 2.051426 2.532 
645 785 -2.301955 1.983589 1.436 
655 785 -2.661662 1.500578 1.017 
665 785 -2.938138 1.532132 1.688 
675 785 -3.214615 1.563685 1.926 
685 785 -3.732361 1.857621 1.799 
695 785 -4.501292 2.048011 2.358 
705 785 -4.880732 0.958348 1.398 
715 785 -5.275236 0.790719 1.019 
725 785 -5.828252 1.233201 1.020 
735 785 -5.969788 1.496684 3.411 
745 785 -5.699843 1.581170 2.454 
755 785 -5.241281 0.901585 3.807 
765 785 -4.933448 0.749272 1.662 
775 785 -4.385740 1.224370 2.058 
785 785 -3.703951 1.539269 2.550 
795 785 -3.589584 1.855640 2.787 
805 785 -3.953930 2.297470 1.498 
815 785 -4.252516 2.992075 1.487 
825 785 -5.300510 2.751900 8.031 
835 785 -10.874086 1.612418 1.106 
845 785 -14.990576 0.507133 1.488 
855 785 -15.063713 -0.055291 1.081 
865 785 -4.960825 0.119318 1.615 
875 785 -5.806927 0.410717 1.987 
885 785 -6.060562 0.723217 3.041 
895 785 -6.242165 0.710542 3.566 
905 785 -6.176413 0.420023 2.635 
915 785 -6.253984 0.574735 1.983 
925 785 -6.644204 0.969142 2.096 
935 785 -6.363777 1.092693 1.615 
945 785 -5.528130 0.911206 1.698 
955 785 -5.776336 1.001568 3.275 
965 785 -5.880636 0.674585 2.962 
975 785 -5.340656 -0.107238 1.090 
985 785 -2.542963 -0.452355 1.352 
995 785 -2.054144 0.055812 1.450 
1005 785 -1.565326 0.563979 2.979 
1015 785 -4.022880 0.914027 37.510 
1025 785 -5.315423 1.063308 20.000 
1035 785 -6.324259 1.024149 2.160 
1045 785 -6.654465 0.705127 2.695 
1055 785 -6.176897 0.570612 2.079 
1065 785 -6.581312 -3.804113 1.123 
1075 785 -6.985726 -8.178837 1.001 
1085 785 -6.387294 -0.461789 1.222 
1095 785 -6.661216 0.765655 1.064 
1105 785 -5.750831 0.640690 1.133 
1115 785 -4.840446 0.515725 1.063 
1125 785 -2.933756 0.024166 1.005 
1135 785 -0.803098 -0.219591 1.277 
1145 785 3.244826 1.738973 1.370 
1155 785 9.532124 9.064920 1.192 
1165 785 14.412860 16.027647 1.548 
1175 785 14.843014 16.379277 1.030 
1185 785 9.720051 11.711340 1.176 
1195 785 8.945043 6.643544 1.278 
1205 785 12.014079 0.281764 1.159 
1215 785 13.370750 -2.748995 1.188 
1225 785 10.286320 -2.853617 1.104 
1235 785 4.053957 -3.183172 1.684 
1245 785 -3.253277 -2.115037 1.189 
1255 785 -3.128808 -1.926000 1.095 
1265 785 3.265338 1.309833 1.145 
1275 785 3.506467 1.282542 1.065 
5 775 12.515267 16.490924 1.242 
15 775 11.292513 16.337969 1.242 
25 775 12.058486 14.324689 1.406 
35 775 12.081059 13.023335 1.286 
45 775 7.882831 7.117350 1.038 
55 775 6.723813 5.752952 1.125 
65 775 9.235801 7.284395 1.665 
75 775 6.823746 5.910736 1.160 
85 775 -0.731940 8.802250 2.088 
95 775 0.194069 5.609515 1.603 
105 775 1.329111 5.247021 1.834 
115 775 0.453496 8.952517 1.026 
125 775 2.785745 9.918223 1.073 
135 775 -0.145700 14.269287 1.058 
145 775 -2.515674 13.711077 1.206 
155 775 -3.288593 8.692395 1.614 
165 775 -3.808939 4.413425 1.039 
175 775 -4.564619 3.227791 2.125 
185 775 -4.757001 2.619225 5.282 
195 775 -4.538809 2.573229 4.119 
205 775 -4.272806 2.541173 3.106 
215 775 -4.395208 2.095593 2.613 
225 775 -5.213887 1.126365 20.000 
235 775 -5.146071 0.905553 8.377 
245 775 -4.591884 1.465822 1.967 
255 775 -4.335829 1.015466 2.048 
265 775 -4.374761 0.595325 1.256 
275 775 -3.948571 0.337819 1.780 
285 775 -3.334823 0.197877 2.276 
295 775 -2.961637 -0.039536 1.737 
305 775 -3.275585 -0.104338 2.741 
315 775 -3.543055 -0.473986 3.760 
325 775 -3.605046 -1.030038 4.993 
335 775 -3.538076 -1.087696 2.820 
345 775 -3.427777 -0.792271 1.599 
355 775 -3.464596 -0.226709 1.714 
365 775 -3.819247 0.204861 1.544 
375 775 -4.313168 0.634698 2.674 
385 775 -4.718148 0.703849 2.602 
395 775 -4.831340 0.733003 2.139 
405 775 -4.662863 0.699374 4.293 
415 775 -4.520373 0.434970 7.436 
425 775 -4.434670 0.387613 3.967 
435 775 -4.451829 0.411354 2.820 
445 775 -4.327821 -0.037037 2.711 
455 775 -3.921654 -0.225356 3.344 
465 775 -3.464144 -0.063257 1.382 
475 775 -3.718296 -0.040647 2.731 
485 775 -4.455385 -0.006368 1.526 
495 775 -4.769696 -0.090265 3.439 
505 775 -4.907281 -0.134002 3.530 
515 775 -4.743249 -0.184156 2.712 
525 775 -4.135380 0.031141 2.775 
535 775 -3.540791 0.442757 2.210 
545 775 -3.629864 0.343754 1.048 
555 775 -3.663104 0.568732 1.205 
565 775 -3.669764 0.959780 1.425 
575 775 -3.407128 1.189450 40.327 
585 775 -3.358778 1.337357 5.318 
595 775 -3.481255 1.714663 2.230 
605 775 -4.216797 2.399926 2.127 
615 775 -4.078748 2.683576 1.986 
625 775 -3.836890 2.332873 1.869 
635 775 -3.416320 2.025165 2.297 
645 775 -2.757025 1.830193 1.290 
655 775 -2.757091 1.655779 1.155 
665 775 -3.020532 1.609125 1.420 
675 775 -3.374303 1.722568 2.533 
685 775 -3.908842 1.801655 2.156 
695 775 -4.475205 2.131230 3.165 
705 775 -4.761537 1.470541 2.540 
715 775 -5.012795 0.957680 1.514 
725 775 -5.307527 1.409715 1.276 
735 775 -5.264914 1.541880 1.824 
745 775 -5.222302 1.674045 2.403 
755 775 -4.888322 0.954091 3.885 
765 775 -4.317641 0.992391 3.366 
775 775 -3.800070 1.328471 1.189 
785 775 -3.500016 1.850977 1.188 
795 775 -3.623229 2.391366 2.003 
805 775 -3.886998 2.765376 3.463 
815 775 -4.033176 3.015149 4.404 
825 775 -4.481512 2.448495 76.247 
835 775 -5.980190 0.653497 1.840 
845 775 -9.913287 0.089671 1.098 
855 775 -10.258169 -0.420494 1.696 
865 775 -5.122873 -0.320130 2.014 
875 775 -5.656383 0.498387 5.701 
885 775 -6.271878 1.020881 4.310 
895 775 -6.235174 1.025438 2.808 
905 775 -6.405764 1.258046 2.580 
915 775 -6.253822 0.990621 1.472 
925 775 -6.472654 1.271080 1.436 
935 775 -6.206047 1.151175 1.672 
945 775 -5.535014 0.755994 2.242 
955 775 -5.838836 0.670169 1.938 
965 775 -6.148124 0.402165 4.454 
975 775 -6.184488 0.102870 2.587 
985 775 -5.590646 -0.270601 4.602 
995 775 -2.662876 -0.267920 2.708 
1005 775 -3.857481 0.330226 1.062 
1015 775 -5.469612 0.618510 9.279 
1025 775 -5.932358 0.670707 4.964 
1035 775 -6.225784 0.248719 3.280 
1045 775 -6.469807 0.179685 5.494 
1055 775 -6.829291 0.059331 2.722 
1065 775 -6.842341 -2.844440 1.223 
1075 775 -6.696594 -4.135166 1.087 
1085 775 -6.809766 0.096234 1.672 
1095 775 -7.238596 0.460567 2.563 
1105 775 -7.612109 0.625927 1.549 
1115 775 -6.797931 -0.294082 1.452 
1125 775 -5.138493 0.066284 1.004 
1135 775 -3.325109 0.645785 1.302 
1145 775 -1.828999 2.048546 1.001 
1155 775 1.508064 3.070848 1.032 
1165 775 6.384878 10.101666 1.084 
1175 775 7.418769 11.691921 1.890 
1185 775 6.776076 9.285638 1.085 
1195 775 7.480830 3.945479 1.212 
1205 775 9.042423 -1.963933 1.045 
1215 775 8.759698 -2.843647 1.085 
1225 775 8.517461 -2.791371 1.010 
1235 775 3.891251 -2.947078 2.275 
1245 775 0.110831 -0.147741 1.020 
1255 775 -0.005081 0.351978 1.161 
1265 775 2.750094 1.148972 1.084 
1275 775 3.251380 1.196937 1.146 
5 765 7.024886 16.935007 1.275 
15 765 6.437535 17.305183 1.275 
25 765 10.140568 15.628136 1.294 
35 765 12.103276 15.038242 1.150 
45 765 10.322515 12.787330 1.396 
55 765 7.290850 9.847403 1.256 
65 765 8.298580 9.869594 1.723 
75 765 8.488300 8.373492 1.023 
85 765 0.756488 7.376035 1.625 
95 765 -0.213355 4.347598 1.284 
105 765 1.071503 4.862398 1.020 
115 765 3.634735 7.266508 1.056 
125 765 4.174965 12.471846 1.063 
135 765 0.628817 12.448795 1.101 
145 765 -2.067376 11.094848 1.289 
155 765 -3.510826 5.748688 1.242 
165 765 -3.867460 5.070323 1.521 
175 765 -4.602347 3.432391 1.717 
185 765 -4.744678 2.645013 2.768 
195 765 -4.669430 2.594591 3.149 
205 765 -4.446983 2.515025 2.358 
215 765 -4.923935 2.526769 1.105 
225 765 -5.035251 1.572476 1.081 
235 765 -4.770634 1.421318 1.583 
245 765 -4.152652 1.752435 1.344 
255 765 -4.258885 1.170054 20.000 
265 765 -4.065868 0.729904 1.927 
275 765 -3.673235 0.450206 1.988 
285 765 -3.270154 0.115815 1.385 
295 765 -3.149091 -0.178719 1.234 
305 765 -3.514936 -0.261994 1.170 
315 765 -3.864872 -0.696571 5.576 
325 765 -3.862334 -1.169383 6.725 
335 765 -3.785277 -1.301466 5.659 
345 765 -4.172984 -0.933482 1.234 
355 765 -4.281426 -0.342949 1.017 
365 765 -4.449393 0.199201 1.087 
375 765 -4.521158 0.481074 2.364 
385 765 -5.625328 0.720723 2.657 
395 765 -5.368201 0.589512 2.796 
405 765 -5.230913 0.120964 1.255 
415 765 -4.910596 0.043156 2.648 
425 765 -5.108602 0.326351 3.041 
435 765 -4.718151 0.787857 2.716 
445 765 -4.338446 0.268259 4.811 
455 765 -3.863914 0.147450 2.471 
465 765 -3.462664 0.297090 2.869 
475 765 -3.835486 0.285970 2.489 
485 765 -4.808669 0.106331 1.402 
495 765 -4.835349 -0.118045 3.877 
505 765 -4.421325 0.086299 1.975 
515 765 -4.200065 -0.000278 1.507 
525 765 -3.793124 0.116675 1.590 
535 765 -3.323375 0.524719 2.354 
545 765 -2.959380 0.630120 1.890 
555 765 -3.159119 0.574059 1.009 
565 765 -3.402715 0.753806 1.432 
575 765 -3.225902 1.118276 546.412 
585 765 -3.247339 1.378968 20.000 
595 765 -3.419477 1.848793 11.308 
605 765 -3.891925 2.478192 1.388 
615 765 -3.973051 2.558434 1.369 
625 765 -3.995927 2.014589 2.015 
635 765 -3.608717 1.536461 2.237 
645 765 -3.265996 1.502908 2.330 
655 765 -3.291462 1.657737 1.168 
665 765 -3.504673 1.902014 1.796 
675 765 -3.764117 1.883969 3.162 
685 765 -4.124240 1.723514 1.085 
695 765 -4.562624 1.826429 2.226 
705 765 -4.536811 1.521848 4.131 
715 765 -4.348578 1.484057 2.055 
725 765 -4.594387 1.666836 1.194 
735 765 -4.441798 1.898733 1.188 
745 765 -4.777816 1.611996 1.002 
755 765 -4.561527 1.043571 1.237 
765 765 -3.567508 0.888130 1.943 
775 765 -3.621931 1.476045 1.744 
785 765 -3.908405 2.126276 2.261 
795 765 -4.096202 2.632461 15.723 
805 765 -4.111224 2.821898 10.078 
815 765 -3.898258 2.773635 2.622 
825 765 -4.465538 1.867781 5.537 
835 765 -4.676802 0.480151 2.466 
845 765 -4.989217 -0.406307 2.350 
855 765 -5.452624 -0.785697 3.103 
865 765 -5.284922 -0.759579 4.083 
875 765 -5.403495 -0.043818 2.537 
885 765 -5.936660 0.693606 1.920 
895 765 -6.228183 1.340334 1.352 
905 765 -6.185339 1.654385 1.858 
915 765 -6.190612 1.350637 1.258 
925 765 -6.301105 1.573019 1.428 
935 765 -5.515287 1.630907 1.250 
945 765 -5.500689 0.651723 1.106 
955 765 -5.850537 0.084509 1.312 
965 765 -6.148981 0.140532 1.906 
975 765 -6.156968 0.072110 1.546 
985 765 -6.493552 -0.157399 3.808 
995 765 -5.824398 -0.259272 1.996 
1005 765 -5.993588 0.089639 3.327 
1015 765 -6.636950 0.254051 1.995 
1025 765 -6.514992 0.159131 2.484 
1035 765 -6.242421 -0.203676 2.478 
1045 765 -6.571665 -0.361039 2.266 
1055 765 -7.011263 -0.505834 2.720 
1065 765 -6.712007 -0.413813 2.343 
1075 765 -6.407463 -0.091494 2.034 
1085 765 -6.139717 0.026192 1.907 
1095 765 -7.441004 0.380420 1.527 
1105 765 -7.353328 0.681876 1.222 
1115 765 -7.397635 0.359448 1.002 
1125 765 -7.343230 0.108402 1.136 
1135 765 -7.138821 1.051022 1.005 
1145 765 -6.934412 1.993642 1.364 
1155 765 -6.763029 2.398783 1.096 
1165 765 -4.196227 10.143963 1.180 
1175 765 0.450576 7.729382 1.074 
1185 765 1.091255 7.583530 1.038 
1195 765 2.737544 1.927843 1.322 
1205 765 6.329147 -4.408715 1.203 
1215 765 6.429322 -6.125707 1.761 
1225 765 6.748602 -2.729125 1.057 
1235 765 4.122049 0.377427 1.115 
1245 765 2.261530 0.499031 1.042 
1255 765 0.401010 0.620635 1.145 
1265 765 1.923228 1.184659 1.018 
1275 765 2.996292 1.111332 1.098 
5 755 3.463004 14.148782 1.144 
15 755 2.344612 14.005176 1.144 
25 755 3.039484 12.618781 1.041 
35 755 3.845672 10.391937 1.929 
45 755 2.957344 9.970219 1.792 
55 755 1.892669 9.179688 1.172 
65 755 3.121221 8.015322 1.080 
75 755 8.064266 8.956959 1.065 
85 755 4.223885 5.748422 1.232 
95 755 2.373577 4.192049 1.040 
105 755 0.813894 4.477775 1.023 
115 755 6.815974 5.580499 1.619 
125 755 4.109655 8.104401 1.321 
135 755 1.403335 10.628303 1.142 
145 755 -3.624082 7.335958 1.336 
155 755 -4.609307 3.956684 1.283 
165 755 -4.405408 4.083694 1.779 
175 755 -4.878724 3.000562 6.987 
185 755 -5.050440 2.823243 3.411 
195 755 -4.911447 2.644943 2.169 
205 755 -4.740528 2.410047 5.716 
215 755 -4.847023 2.411094 1.371 
225 755 -4.853395 1.984808 19.646 
235 755 -4.369396 1.882554 1.359 
245 755 -3.696826 2.044763 2.449 
255 755 -4.130528 1.585123 13.634 
265 755 -4.089528 1.172348 6.329 
275 755 -3.823775 0.728111 1.978 
285 755 -3.439510 0.279629 1.338 
295 755 -3.467649 -0.072769 1.032 
305 755 -3.820378 -0.148273 1.091 
315 755 -4.057630 -0.128805 49.098 
325 755 -4.139200 -0.731171 2.577 
335 755 -4.128867 -1.090405 2.295 
345 755 -4.352009 -0.546854 1.088 
355 755 -4.256628 -0.350810 1.317 
365 755 -4.209860 -0.066151 1.641 
375 755 -4.650909 0.779737 2.104 
385 755 -5.744383 0.816819 5.055 
395 755 -5.905061 0.446020 1.726 
405 755 -5.434333 -0.113737 1.104 
415 755 -4.378369 0.030788 1.649 
425 755 -4.919146 0.649621 2.106 
435 755 -4.724466 1.589588 2.425 
445 755 -4.442210 1.038679 2.225 
455 755 -4.187735 0.422126 2.010 
465 755 -3.817906 0.371964 2.260 
475 755 -4.143627 0.354623 1.104 
485 755 -4.702158 0.180215 1.637 
495 755 -4.668881 -0.018016 1.453 
505 755 -3.746955 0.115862 1.845 
515 755 -3.452126 0.038630 3.225 
525 755 -3.168480 0.221860 2.313 
535 755 -2.364322 0.829752 2.164 
545 755 -2.559346 0.485332 4.708 
555 755 -2.467879 0.556499 2.884 
565 755 -2.861584 0.746561 1.764 
575 755 -2.940449 1.027177 3.209 
585 755 -3.017281 1.376429 2.482 
595 755 -3.282022 1.829015 3.533 
605 755 -3.485309 2.550436 2.907 
615 755 -3.726778 2.472416 1.018 
625 755 -3.865866 1.908943 2.075 
635 755 -3.745724 1.209975 5.539 
645 755 -3.556656 1.057393 3.971 
655 755 -3.362735 1.354131 1.929 
665 755 -3.972504 1.473675 1.479 
675 755 -4.180775 1.660168 3.662 
685 755 -4.047123 1.705549 2.221 
695 755 -4.498057 1.628312 5.319 
705 755 -4.184875 1.442834 3.939 
715 755 -3.859054 1.685696 2.963 
725 755 -4.088412 1.526709 2.678 
735 755 -4.389531 1.987178 1.750 
745 755 -4.672676 1.735000 8.497 
755 755 -4.481243 0.906113 3.922 
765 755 -3.638471 1.326590 39.689 
775 755 -3.244296 1.830786 4.741 
785 755 -3.842817 2.591372 3.006 
795 755 -4.190999 2.643457 5.279 
805 755 -4.266088 2.555512 3.602 
815 755 -4.034080 2.086217 2.245 
825 755 -3.855351 1.464455 1.817 
835 755 -4.446510 0.501801 3.686 
845 755 -5.277750 -0.643550 3.014 
855 755 -5.551025 -1.149268 3.096 
865 755 -5.512631 -1.289878 4.025 
875 755 -5.213192 -0.662395 4.212 
885 755 -5.469112 0.028709 19.018 
895 755 -5.674093 0.736644 1.049 
905 755 -5.631538 1.562562 3.595 
915 755 -5.802865 1.516725 2.060 
925 755 -5.845829 1.644078 1.381 
935 755 -5.529533 1.414717 1.463 
945 755 -5.423271 0.526465 1.120 
955 755 -5.664154 -0.325520 1.098 
965 755 -5.979845 -0.030350 1.738 
975 755 -6.129448 0.041349 1.333 
985 755 -6.318339 -0.163224 2.115 
995 755 -6.070989 -0.308779 3.924 
1005 755 -6.538393 0.012067 6.523 
1015 755 -6.810026 0.118065 4.814 
1025 755 -6.821031 -0.083734 2.646 
1035 755 -6.380775 -0.244854 20.000 
1045 755 -6.744592 -0.519605 3.569 
1055 755 -7.247933 -0.660709 2.513 
1065 755 -7.254809 -0.479194 2.556 
1075 755 -6.088040 -0.139163 2.463 
1085 755 -6.102478 -0.130536 1.915 
1095 755 -7.288550 0.245901 2.148 
1105 755 -7.631385 0.945819 2.491 
1115 755 -7.265604 1.514973 1.025 
1125 755 -7.560335 1.291650 1.046 
1135 755 -6.907009 2.209080 1.048 
1145 755 -6.496548 1.690857 2.109 
1155 755 -8.336137 2.415104 1.130 
1165 755 -6.805773 8.314359 1.099 
1175 755 -3.476143 8.954940 1.036 
1185 755 -2.058945 7.364966 1.091 
1195 755 -0.640088 1.646521 1.312 
1205 755 2.251219 -4.866919 1.173 
1215 755 4.098945 -9.407768 2.285 
1225 755 3.825608 -6.003453 1.041 
1235 755 3.552270 -2.599138 1.013 
1245 755 2.022387 0.226882 1.065 
1255 755 0.492504 3.052901 1.066 
1265 755 0.721008 1.183566 1.250 
1275 755 1.841039 1.180775 1.343 
5 745 6.883418 7.486498 1.108 
15 745 4.217440 7.984588 1.108 
25 745 1.880685 8.102681 1.066 
35 745 -0.925581 7.157370 1.071 
45 745 -1.867153 6.704406 1.365 
55 745 -2.376385 6.585557 1.140 
65 745 -2.056138 6.161050 1.273 
75 745 1.903505 5.270223 1.347 
85 745 5.863149 4.379396 1.099 
95 745 2.673902 4.181689 1.013 
105 745 0.929453 5.515438 1.081 
115 745 2.802792 6.687286 1.202 
125 745 0.646390 6.533331 1.046 
135 745 -1.510011 6.379376 1.004 
145 745 -5.798247 2.901649 1.424 
155 745 -5.495836 2.907228 1.344 
165 745 -4.943356 3.097065 1.763 
175 745 -5.334773 3.075394 4.746 
185 745 -5.334826 2.994398 2.483 
195 745 -5.108477 2.647123 2.019 
205 745 -4.937105 2.428226 7.328 
215 745 -4.903551 2.390765 1.144 
225 745 -4.804891 2.357782 9.947 
235 745 -4.109839 2.326029 1.922 
245 745 -3.832706 2.378012 2.873 
255 745 -3.977933 2.521165 1.325 
265 745 -4.200459 2.051138 1.125 
275 745 -4.017761 1.249579 1.141 
285 745 -3.682277 0.927138 1.274 
295 745 -3.890600 0.239410 4.890 
305 745 -4.129665 0.157498 3.376 
315 745 -4.323022 0.432986 2.224 
325 745 -4.278350 1.408719 1.313 
335 745 -4.123816 1.046895 1.517 
345 745 -3.851556 0.040478 1.085 
355 745 -4.310740 0.368315 1.241 
365 745 -4.993762 1.517808 1.159 
375 745 -5.746697 2.558029 1.289 
385 745 -4.646571 0.777836 2.001 
395 745 -4.985359 0.768502 1.539 
405 745 -4.485637 0.206344 1.384 
415 745 -3.846142 0.018419 1.632 
425 745 -4.039580 1.791139 2.130 
435 745 -3.992765 2.993551 3.415 
445 745 -3.870434 2.107306 4.255 
455 745 -4.305458 0.918578 6.212 
465 745 -4.364285 0.417249 2.047 
475 745 -4.208978 0.333896 1.496 
485 745 -4.514280 0.080324 2.113 
495 745 -4.528960 -0.098700 4.683 
505 745 -3.957217 0.089819 1.881 
515 745 -3.378303 -0.110830 2.718 
525 745 -3.159817 -0.077998 1.832 
535 745 -2.744113 0.446538 3.096 
545 745 -2.159311 0.340544 20.000 
555 745 -2.385124 0.054215 20.000 
565 745 -2.894069 0.251731 5.139 
575 745 -2.867785 0.962807 1.828 
585 745 -2.963476 1.472442 6.264 
595 745 -3.068692 2.108599 21.924 
605 745 -3.414679 2.480658 4.007 
615 745 -3.301279 2.523690 1.233 
625 745 -4.188698 1.744599 3.615 
635 745 -3.935212 1.025367 6.652 
645 745 -3.719553 0.767508 2.871 
655 745 -3.608510 1.365108 1.612 
665 745 -4.114409 1.633178 2.159 
675 745 -4.235015 1.681428 2.385 
685 745 -3.899383 1.657567 2.400 
695 745 -3.791312 1.447625 2.435 
705 745 -3.433394 1.769567 2.563 
715 745 -3.369530 1.887336 1.818 
725 745 -3.837835 2.462114 1.396 
735 745 -4.614477 2.192503 2.300 
745 745 -4.567537 1.858004 2.528 
755 745 -3.756924 1.026512 2.400 
765 745 -3.311793 1.606019 3.401 
775 745 -2.866661 2.185527 4.275 
785 745 -4.020960 3.033415 1.700 
795 745 -4.585530 2.651258 2.299 
805 745 -4.589273 2.251123 2.379 
815 745 -4.113269 1.533472 6.822 
825 745 -4.280732 0.916119 1.663 
835 745 -4.542189 0.009790 2.160 
845 745 -5.025474 -1.001824 3.127 
855 745 -5.375431 -1.323304 4.485 
865 745 -4.981319 -1.258458 2.755 
875 745 -4.939996 -0.866456 2.459 
885 745 -5.430392 -0.052609 1.786 
895 745 -5.242565 0.415867 1.489 
905 745 -5.514708 1.024919 4.339 
915 745 -5.618788 1.118533 2.005 
925 745 -5.813191 1.327389 1.147 
935 745 -5.543780 1.198527 1.719 
945 745 -5.420391 0.503819 1.138 
955 745 -5.577879 -0.254855 1.231 
965 745 -5.769634 -0.263270 2.692 
975 745 -5.832508 -0.183274 1.778 
985 745 -6.073089 -0.236950 2.046 
995 745 -5.911722 -0.236107 2.340 
1005 745 -6.502051 -0.028857 4.059 
1015 745 -6.713489 0.104610 3.748 
1025 745 -6.615319 -0.024716 2.047 
1035 745 -6.515369 -0.189523 1.271 
1045 745 -7.094234 -0.360958 1.193 
1055 745 -7.209314 -0.594170 2.061 
1065 745 -6.735439 -0.587999 3.355 
1075 745 -5.814272 -0.781553 3.997 
1085 745 -6.024182 -0.670633 2.748 
1095 745 -6.676673 -0.098656 1.840 
1105 745 -6.991388 0.803833 3.580 
1115 745 -6.658296 1.466342 1.039 
1125 745 -6.072211 1.794813 1.644 
1135 745 -4.771514 1.610306 44.604 
1145 745 -6.058685 1.388072 5.359 
1155 745 -9.909245 2.431425 1.654 
1165 745 -9.415320 6.484754 1.096 
1175 745 -7.402863 10.180498 1.037 
1185 745 -5.209146 7.146402 1.523 
1195 745 -1.737029 0.338369 1.054 
1205 745 0.957601 -6.815289 1.028 
1215 745 3.877681 -9.272229 1.209 
1225 745 3.456319 -9.853480 1.028 
1235 745 3.034957 -10.434731 1.122 
1245 745 1.577243 -1.825555 1.304 
1255 745 0.883490 -0.733325 1.051 
1265 745 0.189736 0.358905 1.286 
1275 745 0.622436 0.320963 1.180 
5 735 10.459376 -0.509741 1.045 
15 735 7.208967 1.067637 1.045 
25 735 5.125607 3.258089 1.104 
35 735 -3.041303 4.496287 1.012 
45 735 -1.374571 5.175745 1.947 
55 735 -3.115822 5.337901 1.167 
65 735 -1.482550 5.281392 1.058 
75 735 0.910839 4.663213 1.593 
85 735 3.304228 4.045034 1.132 
95 735 0.035381 4.079230 1.571 
105 735 -2.194822 5.318834 1.466 
115 735 -1.214303 6.864438 1.566 
125 735 -1.222265 7.229855 1.079 
135 735 -4.224984 5.821565 1.128 
145 735 -6.550804 3.856552 1.860 
155 735 -6.061143 2.950950 1.279 
165 735 -5.331638 2.746912 1.495 
175 735 -5.340057 2.819418 2.155 
185 735 -5.329192 3.051018 2.886 
195 735 -5.023277 2.840403 3.160 
205 735 -4.922056 2.635128 3.143 
215 735 -4.970871 2.547368 1.117 
225 735 -4.984494 2.445272 2.056 
235 735 -4.611998 2.539276 4.179 
245 735 -4.326233 2.781719 1.156 
255 735 -4.803754 3.189421 1.558 
265 735 -4.995776 3.522735 1.212 
275 735 -4.310450 3.181536 1.345 
285 735 -3.849672 1.659085 1.115 
295 735 -4.172266 0.684168 5.576 
305 735 -4.379494 0.553456 4.805 
315 735 -4.291169 0.838356 2.952 
325 735 -4.417499 3.548608 1.057 
335 735 -4.118765 3.184195 1.062 
345 735 -3.351102 0.627810 1.257 
355 735 -4.364852 1.087440 1.045 
365 735 -6.631746 3.911309 1.136 
375 735 -6.842484 4.336320 1.212 
385 735 -2.925718 0.506660 1.383 
395 735 -3.299421 1.333878 1.530 
405 735 -3.586316 1.105506 2.372 
415 735 -3.268740 0.473770 1.869 
425 735 -2.374044 4.952566 1.098 
435 735 -1.981125 7.802568 1.372 
445 735 -2.573372 5.789887 2.222 
455 735 -3.858941 1.712176 1.340 
465 735 -3.989625 0.781554 1.091 
475 735 -3.946868 0.413269 5.862 
485 735 -4.083893 -0.107016 15.225 
495 735 -4.155942 -0.416790 2.304 
505 735 -4.247051 -0.670807 3.096 
515 735 -3.770501 -0.151268 2.862 
525 735 -3.427070 0.124188 1.141 
535 735 -3.123903 0.063324 1.302 
545 735 -3.228126 -0.784206 20.000 
555 735 -2.812403 -0.775521 10.195 
565 735 -2.926553 -0.243099 10.189 
575 735 -3.049075 0.790557 1.969 
585 735 -3.293072 1.463434 3.309 
595 735 -3.457826 2.103364 5.659 
605 735 -3.344048 2.410879 1.919 
615 735 -3.461640 2.064153 1.308 
625 735 -4.564854 1.579618 1.521 
635 735 -4.539664 0.837337 2.687 
645 735 -4.202338 0.851684 1.669 
655 735 -3.743774 1.385509 2.185 
665 735 -4.015671 1.863890 1.426 
675 735 -3.997817 1.925968 3.517 
685 735 -3.701592 1.672265 3.295 
695 735 -3.131192 1.672036 3.741 
705 735 -3.425152 1.803990 2.733 
715 735 -3.482814 2.129478 1.114 
725 735 -3.931347 2.533313 1.008 
735 735 -4.839423 2.397827 1.350 
745 735 -5.197224 1.565563 2.462 
755 735 -4.254405 0.645803 1.712 
765 735 -3.947240 0.240677 1.860 
775 735 -4.231599 2.495612 1.325 
785 735 -4.596587 2.834958 1.224 
795 735 -5.408256 2.721960 1.504 
805 735 -5.488877 1.980491 1.761 
815 735 -5.471105 1.254005 2.027 
825 735 -5.093566 0.688661 1.695 
835 735 -5.018636 -0.080352 3.015 
845 735 -5.253699 -0.853678 1.528 
855 735 -5.169053 -1.070151 4.056 
865 735 -4.663381 -0.888942 3.905 
875 735 -4.794135 -0.314970 2.720 
885 735 -4.706153 0.250678 1.937 
895 735 -4.930100 0.497095 3.637 
905 735 -5.448346 0.545386 1.777 
915 735 -5.675258 0.721627 2.738 
925 735 -5.768173 0.991730 1.639 
935 735 -5.588260 1.069888 2.096 
945 735 -5.472350 0.568734 1.012 
955 735 -5.463725 0.026154 1.157 
965 735 -5.823140 0.045062 4.743 
975 735 -5.975556 0.014389 2.792 
985 735 -6.159689 -0.192659 2.685 
995 735 -6.507928 -0.265726 1.733 
1005 735 -5.811347 -0.119993 1.319 
1015 735 -5.820429 -0.093167 2.503 
1025 735 -6.497777 -0.132829 1.038 
1035 735 -6.611815 -0.130363 1.677 