TITLE = "B00392"
VARIABLES = "x", "y", "u", "v", "sn"
ZONE T="Frame 0", I=128, J=80
5 795 0.000000 -0.000000 11.974 
15 795 0.000000 -0.000000 11.974 
25 795 0.000000 -0.000000 1.115 
35 795 0.000000 -0.000000 1.044 
45 795 9.386982 -2.756190 1.085 
55 795 7.603255 -8.299772 1.151 
65 795 5.819528 -13.843354 1.439 
75 795 4.035801 -19.386935 1.074 
85 795 0.952140 -6.686090 1.110 
95 795 -2.131520 6.014756 1.085 
105 795 -2.441407 2.720404 1.175 
115 795 -2.751293 -0.573948 1.157 
125 795 -3.061180 -3.868299 1.124 
135 795 -0.743989 -4.187585 1.453 
145 795 1.573201 -4.506871 1.301 
155 795 3.890391 -4.826156 5.089 
165 795 -0.007777 -2.745332 1.032 
175 795 -4.399871 -0.869384 3.944 
185 795 -7.501878 1.213193 20.000 
195 795 -8.264586 1.752030 4.087 
205 795 -7.708745 1.565925 5.423 
215 795 -7.702979 1.376623 2.939 
225 795 -7.940839 1.347878 1.853 
235 795 -7.738618 1.324774 3.378 
245 795 -7.683888 1.237518 4.625 
255 795 -7.723612 1.309153 1.861 
265 795 -7.725545 1.492650 1.994 
275 795 -7.823747 1.272578 2.323 
285 795 -7.956673 0.429593 1.490 
295 795 -8.103179 0.423196 2.522 
305 795 -7.999454 0.787169 8.569 
315 795 -7.852123 1.200844 10.281 
325 795 -7.852065 1.718166 1.213 
335 795 -7.957038 1.536038 1.768 
345 795 -8.289784 0.813730 1.302 
355 795 -8.092303 0.931694 2.089 
365 795 -7.710772 0.937631 2.137 
375 795 -7.810392 1.028029 1.544 
385 795 -8.293482 1.230732 4.199 
395 795 -8.271061 1.129934 20.209 
405 795 -7.863289 0.659852 3.853 
415 795 -7.818552 0.271492 31.939 
425 795 -7.660386 0.156123 9.743 
435 795 -7.363709 0.396497 1.723 
445 795 -7.745379 0.458306 2.170 
455 795 -7.719821 0.706298 1.983 
465 795 -7.603511 0.590470 5.687 
475 795 -7.744521 0.354069 2.192 
485 795 -8.021951 0.378018 2.005 
495 795 -8.250860 0.398773 2.015 
505 795 -8.283783 -0.364382 2.027 
515 795 -8.257534 -0.544721 1.748 
525 795 -8.139368 -0.276415 2.069 
535 795 -8.079972 -0.150311 1.933 
545 795 -8.018229 -0.163122 2.380 
555 795 -7.940651 -0.478062 1.555 
565 795 -7.766882 -0.530027 2.231 
575 795 -7.550943 -0.266756 2.537 
585 795 -7.562592 -0.601729 2.826 
595 795 -7.559263 -0.791230 2.401 
605 795 -7.555935 -0.980731 2.985 
615 795 -7.346207 -1.027620 3.635 
625 795 -7.356195 -0.994309 4.240 
635 795 -7.382540 -0.912838 6.403 
645 795 -7.211698 -0.678468 5.507 
655 795 -7.242737 -0.706512 2.021 
665 795 -7.273776 -0.734556 2.537 
675 795 -7.286673 -0.900056 1.967 
685 795 -7.299570 -1.065556 1.271 
695 795 -6.905753 -1.265172 1.223 
705 795 -6.774286 -1.527586 2.185 
715 795 -6.767693 -1.256928 1.150 
725 795 -6.645805 -0.766762 1.127 
735 795 -6.315078 -0.144807 1.649 
745 795 -6.255891 0.880485 1.031 
755 795 -6.699752 1.307604 1.496 
765 795 -7.143614 1.734722 1.120 
775 795 -7.073672 1.871706 1.013 
785 795 -7.003731 2.008690 1.055 
795 795 -5.973375 2.422849 1.443 
805 795 -5.506533 2.202308 7.714 
815 795 -5.820048 1.066404 2.735 
825 795 -5.703633 0.476031 4.057 
835 795 -5.306979 0.518487 3.342 
845 795 -4.870186 1.186564 3.855 
855 795 -4.329170 1.256768 5.394 
865 795 -3.778632 1.008925 1.081 
875 795 -3.670112 0.749309 2.329 
885 795 -3.786642 0.594012 2.284 
895 795 -3.957632 0.847972 1.014 
905 795 -4.669279 1.426748 3.838 
915 795 -5.966904 2.163964 4.676 
925 795 -6.310024 3.029924 1.064 
935 795 -6.123274 3.854681 1.300 
945 795 -6.001346 3.403282 1.205 
955 795 -5.879417 2.951882 2.754 
965 795 -5.603028 2.283083 3.743 
975 795 -4.968123 1.929111 3.597 
985 795 -5.089604 1.872283 2.165 
995 795 -5.211084 1.815455 1.106 
1005 795 -5.332565 1.758627 1.228 
1015 795 -5.454046 1.701799 2.060 
1025 795 -5.360787 1.175359 1.710 
1035 795 -5.955021 0.464667 1.787 
1045 795 -7.014368 -0.657241 1.449 
1055 795 -7.127922 -0.533318 1.523 
1065 795 -7.241476 -0.409395 1.459 
1075 795 -4.638133 4.273354 1.020 
1085 795 -4.809679 12.665218 1.842 
1095 795 -8.031790 14.107418 1.775 
1105 795 -11.253902 15.549619 1.048 
1115 795 -9.012187 10.254317 1.050 
1125 795 -6.770472 4.959016 1.138 
1135 795 -4.528757 -0.336286 1.488 
1145 795 -1.978790 -0.600000 1.349 
1155 795 -0.032589 1.410852 1.288 
1165 795 1.913611 3.421703 1.198 
1175 795 2.024419 4.258485 1.004 
1185 795 2.135227 5.095266 1.016 
1195 795 2.246034 5.932048 1.050 
1205 795 2.356842 6.768829 1.049 
1215 795 2.467650 7.605611 1.045 
1225 795 0.197111 9.428101 1.190 
1235 795 -0.422317 8.530017 1.414 
1245 795 -1.041745 7.631932 1.284 
1255 795 -0.613715 -3.218415 1.199 
1265 795 -0.395301 -12.237502 1.006 
1275 795 0.000000 -0.000000 1.018 
5 785 17.577976 -0.083623 11.974 
15 785 16.538610 -1.219934 11.974 
25 785 17.160259 -3.802758 1.115 
35 785 18.475130 -7.684577 1.044 
45 785 17.367842 -13.926477 1.085 
55 785 13.711457 -17.268390 1.151 
65 785 8.555646 -16.300321 1.439 
75 785 0.430768 -19.703851 1.074 
85 785 1.040978 -6.015042 1.110 
95 785 1.651188 7.673767 1.085 
105 785 0.449795 9.711262 1.175 
115 785 -0.877358 4.255613 1.157 
125 785 -2.204511 -1.200036 1.124 
135 785 1.948388 -8.336319 1.453 
145 785 4.495310 -5.086170 1.301 
155 785 2.862309 -4.100842 5.089 
165 785 -0.742458 -2.145168 1.032 
175 785 -4.891515 -0.255371 3.944 
185 785 -7.867888 1.523312 20.000 
195 785 -7.876840 1.580150 4.087 
205 785 -7.885792 1.636988 5.423 
215 785 -7.874516 1.417201 2.939 
225 785 -8.054853 1.358764 1.853 
235 785 -7.743372 1.281583 3.378 
245 785 -7.677259 1.217029 4.625 
255 785 -7.778128 1.254839 1.861 
265 785 -7.778146 1.493536 1.994 
275 785 -7.823316 1.401649 2.323 
285 785 -8.048726 1.015632 1.490 
295 785 -8.117556 0.604561 2.522 
305 785 -8.033465 0.893875 8.569 
315 785 -7.897324 1.168192 10.281 
325 785 -7.896985 1.590265 1.213 
335 785 -7.983192 1.428503 1.768 
345 785 -8.293786 0.734717 1.302 
355 785 -8.074250 0.900605 2.089 
365 785 -7.762036 0.909611 2.137 
375 785 -7.869747 1.014599 1.544 
385 785 -8.298464 1.202116 4.199 
395 785 -8.251915 1.155729 20.209 
405 785 -7.971249 0.728076 3.853 
415 785 -7.836248 0.373295 31.939 
425 785 -7.587791 0.268606 9.743 
435 785 -7.268852 0.466188 1.723 
445 785 -7.719064 0.479763 2.170 
455 785 -7.717819 0.688728 1.983 
465 785 -7.664165 0.582646 5.687 
475 785 -7.778260 0.343965 2.192 
485 785 -8.004773 0.360560 2.005 
495 785 -8.205224 0.383852 2.015 
505 785 -8.222950 -0.352471 2.027 
515 785 -8.191376 -0.511000 1.748 
525 785 -8.079305 -0.248712 2.069 
535 785 -8.025378 -0.149162 1.933 
545 785 -7.965771 -0.154083 2.380 
555 785 -7.877653 -0.409069 1.555 
565 785 -7.707823 -0.427352 2.231 
575 785 -7.525874 -0.169186 2.537 
585 785 -7.535221 -0.500400 2.826 
595 785 -7.635543 -0.602062 2.401 
605 785 -7.490222 -0.905342 2.985 
615 785 -7.295249 -0.987995 3.635 
625 785 -7.297671 -0.988763 4.240 
635 785 -7.362852 -0.861604 6.403 
645 785 -7.238155 -0.576299 5.507 
655 785 -7.116478 -0.431567 2.021 
665 785 -7.281836 -0.690308 2.537 
675 785 -7.280892 -0.817977 1.967 
685 785 -7.279948 -0.945647 1.271 
695 785 -6.873961 -1.067399 1.223 
705 785 -6.784628 -1.296029 2.185 
715 785 -6.809623 -1.185324 1.150 
725 785 -6.609954 -0.798951 1.127 
735 785 -6.185710 -0.230327 1.649 
745 785 -6.078967 0.398237 1.031 
755 785 -6.497094 1.262857 1.496 
765 785 -7.103449 0.821822 1.120 
775 785 -7.475325 0.526290 1.013 
785 785 -6.976327 1.293020 1.055 
795 785 -5.993852 2.078928 1.443 
805 785 -5.396049 1.617923 7.714 
815 785 -5.708453 1.010165 2.735 
825 785 -5.657387 0.574888 4.057 
835 785 -5.305608 0.866568 3.342 
845 785 -4.898247 1.284313 3.855 
855 785 -4.398447 1.334914 5.394 
865 785 -3.909326 1.173584 1.081 
875 785 -3.797480 0.930769 2.329 
885 785 -3.860372 0.773085 2.284 
895 785 -3.948659 1.031476 1.014 
905 785 -4.446102 1.499748 3.838 
915 785 -5.622129 2.086464 4.676 
925 785 -5.825086 2.468450 1.064 
935 785 -5.895130 3.758784 1.300 
945 785 -5.945627 3.845114 1.205 
955 785 -5.763220 3.132771 2.754 
965 785 -5.516222 2.662928 3.743 
975 785 -4.969754 2.261622 3.597 
985 785 -4.763102 1.977700 2.165 
995 785 -5.842003 1.840069 1.106 
1005 785 -5.741291 1.846783 1.228 
1015 785 -5.640579 1.853498 2.060 
1025 785 -5.493350 1.302439 1.710 
1035 785 -6.053179 0.632297 1.787 
1045 785 -6.999898 -0.175626 1.449 
1055 785 -7.724678 -0.511569 1.523 
1065 785 -7.333929 -0.383959 1.459 
1075 785 -4.835727 4.357673 1.020 
1085 785 -4.649665 11.446009 1.842 
1095 785 -6.012607 14.263194 1.775 
1105 785 -12.165102 9.191082 1.048 
1115 785 -14.264831 7.632919 1.050 
1125 785 -2.954993 4.411595 1.138 
1135 785 -6.123159 -0.309796 1.488 
1145 785 -3.194266 -0.250500 1.349 
1155 785 0.511133 0.629314 1.288 
1165 785 5.053519 -0.061980 1.198 
1175 785 4.936627 -0.387384 1.004 
1185 785 4.225519 0.729301 1.016 
1195 785 1.759407 -1.596320 1.050 
1205 785 1.794751 3.881653 1.049 
1215 785 1.830096 9.359626 1.045 
1225 785 -0.463565 10.937155 1.190 
1235 785 -1.022251 13.364631 1.414 
1245 785 -0.597645 12.076408 1.284 
1255 785 -0.055410 2.744613 1.199 
1265 785 1.797922 -8.086359 1.006 
1275 785 2.314233 -6.972967 1.018 
5 775 26.260680 -5.330030 1.248 
15 775 26.225822 -6.100192 1.248 
25 775 26.919741 -8.739339 1.362 
35 775 24.579512 -11.484858 1.237 
45 775 21.368526 -20.033484 1.393 
55 775 16.799513 -21.097212 1.262 
65 775 8.462013 -17.257503 1.166 
75 775 1.156367 -16.739137 1.091 
85 775 2.270326 -8.073266 1.076 
95 775 3.384285 0.592606 1.052 
105 775 0.949826 8.290941 1.475 
115 775 -0.280655 8.282766 1.628 
125 775 0.873943 0.516518 1.389 
135 775 2.402292 -6.357791 1.480 
145 775 3.245724 -4.370666 1.066 
155 775 3.802077 -4.955705 20.000 
165 775 -0.587842 -2.423550 20.000 
175 775 -5.560212 0.302258 20.000 
185 775 -7.764478 2.050587 31.768 
195 775 -7.938556 2.008280 5.844 
205 775 -8.112633 1.965973 1.789 
215 775 -7.923300 1.244855 1.212 
225 775 -7.964148 1.146550 1.914 
235 775 -7.960287 1.182031 1.045 
245 775 -7.505188 1.148602 2.339 
255 775 -7.720282 1.118719 1.985 
265 775 -7.668977 1.416626 1.693 
275 775 -7.725309 1.541517 2.213 
285 775 -7.993871 1.487742 2.001 
295 775 -7.845437 0.920062 2.805 
305 775 -7.913212 0.860162 2.574 
315 775 -8.042190 1.004517 3.340 
325 775 -8.035952 1.401480 1.793 
335 775 -8.157947 1.066579 2.717 
345 775 -8.164784 0.673162 1.460 
355 775 -8.104120 0.815857 1.429 
365 775 -7.843847 0.946297 2.489 
375 775 -8.009607 1.065557 2.294 
385 775 -8.345676 1.137425 3.351 
395 775 -8.321930 1.133188 4.582 
405 775 -8.041940 0.913502 1.743 
415 775 -7.800821 0.556457 10.597 
425 775 -7.442278 0.404988 2.006 
435 775 -6.933921 0.391123 1.790 
445 775 -7.606874 0.394584 1.950 
455 775 -7.717139 0.543016 2.077 
465 775 -7.822823 0.492847 4.886 
475 775 -7.974941 0.275996 2.156 
485 775 -7.991393 0.394251 2.934 
495 775 -7.879505 0.334924 2.657 
505 775 -8.010341 -0.215373 2.656 
515 775 -8.038436 -0.553461 5.432 
525 775 -7.805000 -0.229100 1.944 
535 775 -7.754433 -0.168339 1.374 
545 775 -7.889902 -0.242606 5.304 
555 775 -7.797546 -0.285000 2.470 
565 775 -7.651153 -0.286825 2.657 
575 775 -7.450915 -0.142617 2.859 
585 775 -7.400809 -0.025972 5.664 
595 775 -7.372229 -0.226399 4.947 
605 775 -7.135507 -0.774726 5.975 
615 775 -7.101063 -0.991575 5.357 
625 775 -7.279706 -1.100104 2.303 
635 775 -7.384032 -0.791557 1.750 
645 775 -7.339083 -0.445342 2.288 
655 775 -7.303734 -0.298746 1.510 
665 775 -7.504034 -0.707356 1.222 
675 775 -7.281744 -0.825995 1.993 
685 775 -7.291874 -0.498473 1.625 
695 775 -7.112719 -0.455363 1.136 
705 775 -6.932967 -0.436955 1.413 
715 775 -6.779775 -0.654531 1.502 
725 775 -6.394011 -0.565485 1.651 
735 775 -6.063829 -0.226283 1.021 
745 775 -5.902044 -0.084010 1.366 
755 775 -6.018248 -0.369353 1.808 
765 775 -6.713762 -0.168695 1.398 
775 775 -7.656842 -0.219879 1.376 
785 775 -6.798816 0.132948 2.327 
795 775 -5.490023 0.710070 2.504 
805 775 -5.285565 1.033538 4.714 
815 775 -5.511370 0.984477 1.904 
825 775 -5.491850 0.896316 1.267 
835 775 -5.201622 1.260685 1.226 
845 775 -4.631889 1.589558 5.749 
855 775 -4.291382 1.643355 6.867 
865 775 -4.086405 1.286502 1.353 
875 775 -3.918856 0.931367 1.595 
885 775 -3.844856 0.969083 1.006 
895 775 -3.753025 1.149015 2.047 
905 775 -4.028103 1.584243 4.291 
915 775 -4.891737 1.925637 3.677 
925 775 -5.340148 1.906977 1.126 
935 775 -5.434308 1.890439 1.912 
945 775 -5.397815 2.984138 1.791 
955 775 -5.489389 3.433213 2.201 
965 775 -5.409238 3.227982 6.216 
975 775 -5.289056 2.907595 20.000 
985 775 -5.223327 2.498319 20.000 
995 775 -5.826254 2.283226 1.013 
1005 775 -5.877131 2.102392 1.353 
1015 775 -5.616581 1.808531 1.529 
1025 775 -5.621747 1.342571 1.864 
1035 775 -6.080063 0.789891 1.814 
1045 775 -6.788849 0.296675 1.680 
1055 775 -7.735724 0.320718 4.560 
1065 775 -7.925968 0.130883 1.234 
1075 775 -7.480243 0.753567 1.747 
1085 775 -6.931015 4.647338 2.000 
1095 775 -6.381788 8.541109 1.056 
1105 775 -10.860616 3.978843 1.151 
1115 775 -12.095071 2.771006 1.119 
1125 775 -6.250704 1.213203 1.477 
1135 775 -7.717560 -0.283307 2.014 
1145 775 -3.762729 0.001991 2.216 
1155 775 2.814054 -1.283263 1.380 
1165 775 8.193427 -3.545664 1.435 
1175 775 8.670751 -5.313155 1.097 
1185 775 2.209487 -3.281976 1.068 
1195 775 1.695123 -3.645545 1.041 
1205 775 0.922998 2.938650 1.331 
1215 775 0.150874 9.522844 1.129 
1225 775 -1.124242 12.446208 1.243 
1235 775 -1.184554 11.709237 1.787 
1245 775 -1.244866 10.972265 1.946 
1255 775 0.502895 8.707641 1.354 
1265 775 2.456278 -1.131710 1.414 
1275 775 0.264294 -2.733681 1.342 
5 765 33.114854 -9.309447 1.028 
15 765 33.437141 -10.243338 1.028 
25 765 33.146003 -12.724966 1.772 
35 765 29.700059 -16.831227 1.470 
45 765 24.196887 -21.457854 1.125 
55 765 19.887569 -24.926035 1.098 
65 765 8.368379 -18.214684 1.242 
75 765 1.122184 -12.197526 1.149 
85 765 2.363847 -7.584644 1.217 
95 765 3.605510 -2.971762 1.145 
105 765 3.422654 2.912301 1.043 
115 765 4.472837 -0.667797 1.249 
125 765 2.729258 -2.415364 1.144 
135 765 2.659538 -4.256933 1.542 
145 765 1.819729 -4.285873 1.045 
155 765 3.380924 -5.205207 20.000 
165 765 -0.947934 -2.409850 1.530 
175 765 -5.902839 0.415914 1.020 
185 765 -7.791780 2.081644 3.171 
195 765 -7.949659 2.089581 4.186 
205 765 -8.107538 2.097519 2.470 
215 765 -8.189986 1.685461 1.767 
225 765 -7.916619 1.400515 1.081 
235 765 -7.596140 1.289660 1.251 
245 765 -7.578552 1.206424 1.466 
255 765 -7.560964 1.123188 1.733 
265 765 -7.592118 1.108934 1.413 
275 765 -7.164921 1.523929 1.519 
285 765 -7.334981 1.685153 1.071 
295 765 -7.544961 1.155176 3.990 
305 765 -7.771287 0.846000 3.304 
315 765 -8.049339 0.911649 25.911 
325 765 -8.016350 1.036402 2.446 
335 765 -7.937814 0.881240 2.192 
345 765 -7.889109 0.707996 2.980 
355 765 -7.752350 0.754645 8.967 
365 765 -7.642656 1.074057 3.212 
375 765 -7.758170 0.729391 1.528 
385 765 -8.148788 0.950917 2.463 
395 765 -8.375841 0.852635 2.795 
405 765 -8.411785 0.674264 5.009 
415 765 -7.896566 0.519954 1.927 
425 765 -7.066975 0.377418 1.324 
435 765 -6.905531 0.299849 1.148 
445 765 -7.357625 0.218986 1.751 
455 765 -7.691509 0.454077 1.872 
465 765 -7.914368 0.454071 4.206 
475 765 -8.003862 0.272709 3.944 
485 765 -7.975736 0.311738 4.146 
495 765 -7.853384 0.293624 2.341 
505 765 -7.899662 -0.093099 2.950 
515 765 -7.879794 -0.307943 3.958 
525 765 -7.730069 -0.125920 3.171 
535 765 -7.666148 -0.172675 4.384 
545 765 -7.625969 -0.342197 3.876 
555 765 -7.546842 -0.261713 2.802 
565 765 -7.523793 -0.268956 4.755 
575 765 -7.472502 -0.211361 3.217 
585 765 -7.477719 -0.277444 2.363 
595 765 -7.403061 -0.437577 2.405 
605 765 -7.028384 -0.674891 2.962 
615 765 -7.012942 -0.740787 2.369 
625 765 -7.260044 -0.911877 2.373 
635 765 -7.286089 -0.661571 1.792 
645 765 -7.298614 -0.310770 5.649 
655 765 -7.316222 -0.381180 2.355 
665 765 -7.078412 -0.893520 1.314 
675 765 -6.791050 -0.861346 2.047 
685 765 -7.085620 -0.087692 2.964 
695 765 -6.080624 -0.137922 3.805 
705 765 -6.473976 0.469375 1.264 
715 765 -6.830870 0.144509 1.415 
725 765 -6.465182 0.055438 1.243 
735 765 -6.153174 1.363660 1.518 
745 765 -5.802705 0.820812 1.319 
755 765 -5.710789 -0.215349 1.145 
765 765 -5.753755 -1.300393 2.318 
775 765 -6.384001 -1.084902 1.613 
785 765 -6.290068 -0.823662 3.036 
795 765 -5.880772 -0.060105 5.834 
805 765 -5.493099 0.357915 2.109 
815 765 -5.408565 1.179268 2.506 
825 765 -5.397373 1.252403 3.732 
835 765 -5.365671 1.311149 3.910 
845 765 -4.789874 1.731210 4.346 
855 765 -4.635387 1.875503 4.871 
865 765 -4.547363 1.936919 2.212 
875 765 -4.283084 1.750951 1.617 
885 765 -3.961782 1.295582 1.557 
895 765 -3.557390 1.266553 1.164 
905 765 -3.495311 1.359002 1.541 
915 765 -3.845367 1.305639 2.219 
925 765 -4.421052 1.816211 1.225 
935 765 -4.647732 1.762111 1.583 
945 765 -4.812519 2.660066 7.084 
955 765 -4.808456 3.007807 1.907 
965 765 -5.088131 3.270256 3.524 
975 765 -5.199896 2.859521 1.901 
985 765 -5.324991 2.473028 20.000 
995 765 -5.609434 2.297786 2.319 
1005 765 -5.844923 2.036311 2.500 
1015 765 -5.637883 1.711877 2.510 
1025 765 -5.340712 1.028324 1.513 
1035 765 -5.789482 0.897584 1.930 
1045 765 -6.474021 0.750311 3.965 
1055 765 -7.108492 0.469695 20.000 
1065 765 -7.211488 0.085910 4.874 
1075 765 -7.496950 0.412949 1.959 
1085 765 -7.019194 1.979887 1.069 
1095 765 -6.541438 3.546825 1.014 
1105 765 -8.965114 -1.071577 2.021 
1115 765 -9.132807 -1.726199 20.000 
1125 765 -7.270890 -0.151604 21.461 
1135 765 -7.916938 -0.836396 20.000 
1145 765 -5.053352 -0.316786 21.405 
1155 765 0.772097 -1.066894 1.154 
1165 765 3.958529 -2.842867 1.144 
1175 765 0.079703 -7.765682 1.091 
1185 765 0.193454 -7.293252 1.240 
1195 765 -3.381475 -0.917334 1.057 
1205 765 -1.140345 3.169936 1.382 
1215 765 1.100785 7.257207 1.357 
1225 765 -0.874789 9.813830 1.009 
1235 765 -1.365822 9.518468 1.600 
1245 765 -1.856855 9.223105 1.175 
1255 765 0.890114 6.647520 1.078 
1265 765 3.114634 5.822938 1.463 
1275 765 -1.785644 1.505604 1.406 
5 755 38.702262 -13.044629 1.005 
15 755 37.332138 -14.700853 1.005 
25 755 34.777156 -16.523753 1.010 
35 755 31.579601 -20.906637 1.014 
45 755 24.689927 -21.928733 1.537 
55 755 20.381957 -22.895028 1.008 
65 755 10.204435 -15.721814 1.060 
75 755 4.214414 -11.980028 1.070 
85 755 4.020575 -9.258079 1.033 
95 755 3.826736 -6.536130 1.151 
105 755 4.275662 -2.827575 1.191 
115 755 4.512625 -4.130058 1.109 
125 755 3.283365 -4.194381 1.156 
135 755 1.985610 -4.195021 1.594 
145 755 1.003348 -3.954036 1.299 
155 755 1.579599 -3.689610 1.032 
165 755 -1.122635 -2.414935 1.020 
175 755 -5.631255 0.304792 1.203 
185 755 -7.765970 1.684940 2.433 
195 755 -8.377976 1.855633 3.979 
205 755 -8.289903 1.745729 1.127 
215 755 -7.863218 1.469477 1.059 
225 755 -7.495113 1.289738 1.228 
235 755 -7.461090 1.464580 2.061 
245 755 -7.662818 1.220847 1.678 
255 755 -7.864547 0.977114 2.191 
265 755 -7.629165 0.760028 1.320 
275 755 -7.408927 1.029042 1.378 
285 755 -7.257195 1.369262 1.102 
295 755 -7.515352 1.028566 3.494 
305 755 -7.603831 0.864097 6.595 
315 755 -7.792930 0.924029 2.654 
325 755 -7.790642 0.916817 1.685 
335 755 -7.492204 1.011503 3.750 
345 755 -7.335300 0.961007 4.562 
355 755 -7.173893 0.909573 2.659 
365 755 -7.356237 1.181882 1.262 
375 755 -7.398767 0.409669 1.303 
385 755 -7.799106 0.338413 2.038 
395 755 -8.052806 0.251745 4.670 
405 755 -8.001567 0.408000 5.217 
415 755 -8.042317 0.387990 3.858 
425 755 -7.628778 0.205287 1.980 
435 755 -7.220815 -0.088048 1.285 
445 755 -7.469397 -0.072367 2.280 
455 755 -7.730129 0.204763 4.021 
465 755 -7.777906 0.348753 2.440 
475 755 -7.879889 0.387508 2.122 
485 755 -7.924138 0.345036 2.669 
495 755 -7.938733 0.294904 4.259 
505 755 -7.970815 0.052700 4.435 
515 755 -7.846530 -0.010995 3.414 
525 755 -7.731341 -0.017484 4.319 
535 755 -7.639805 -0.086500 5.435 
545 755 -7.371148 -0.130582 6.815 
555 755 -7.402890 -0.020908 2.911 
565 755 -7.367708 -0.085936 2.677 
575 755 -7.596817 -0.630152 2.177 
585 755 -7.589591 -0.836397 2.842 
595 755 -7.431727 -0.849425 6.465 
605 755 -7.009052 -0.675954 8.321 
615 755 -7.192251 -0.689265 4.651 
625 755 -7.116554 -0.373021 2.014 
635 755 -6.866215 -0.276188 2.567 
645 755 -6.681641 -0.250599 3.136 
655 755 -6.730119 -0.546143 2.980 
665 755 -6.532386 -0.928854 2.437 
675 755 -6.615051 -0.543971 3.948 
685 755 -6.737124 -0.037270 2.535 
695 755 -6.171130 -0.129945 2.121 
705 755 -6.584496 0.306211 2.070 
715 755 -6.879950 0.919197 1.218 
725 755 -6.031285 0.765416 1.224 
735 755 -5.670870 0.696983 1.092 
745 755 -5.315428 0.391342 1.001 
755 755 -5.403330 -0.061346 2.317 
765 755 -5.547683 -0.767217 2.655 
775 755 -6.130352 -0.974098 1.196 
785 755 -5.961918 -1.159796 24.954 
795 755 -5.761053 -0.462217 8.296 
805 755 -5.467510 1.036257 1.047 
815 755 -5.773396 1.328903 1.297 
825 755 -5.495675 1.007848 2.371 
835 755 -5.644878 1.160267 4.007 
845 755 -5.200449 1.169232 4.813 
855 755 -5.221627 1.614203 1.295 
865 755 -5.300136 1.906883 2.050 
875 755 -4.788967 2.163539 4.093 
885 755 -4.255202 2.298123 1.414 
895 755 -3.624992 1.683361 1.106 
905 755 -3.227522 1.362050 1.238 
915 755 -3.224486 1.787326 1.473 
925 755 -3.501956 1.725445 1.060 
935 755 -3.928656 1.931017 1.082 
945 755 -4.167457 2.497187 1.844 
955 755 -4.280096 2.963903 1.716 
965 755 -4.539804 3.075877 3.036 
975 755 -4.659554 2.395146 2.834 
985 755 -4.816725 2.008313 2.068 
995 755 -5.262926 2.137193 1.791 
1005 755 -5.662307 1.873930 2.130 
1015 755 -5.658967 1.599113 1.958 
1025 755 -5.828556 1.195526 1.276 
1035 755 -6.276553 1.102470 13.572 
1045 755 -6.663646 0.995229 20.000 
1055 755 -6.792522 0.427984 20.000 
1065 755 -6.887758 0.414419 8.193 
1075 755 -7.005898 0.175210 3.224 
1085 755 -6.832675 0.683134 1.737 
1095 755 -6.659452 1.191059 1.159 
1105 755 -7.840391 -1.309201 1.001 
1115 755 -8.312459 -1.451225 2.413 
1125 755 -8.291076 -1.516411 2.462 
1135 755 -8.326939 -1.268181 3.747 
1145 755 -6.343976 -0.635563 10.699 
1155 755 -2.936974 -1.064053 1.890 
1165 755 -2.547478 -3.440264 1.019 
1175 755 -5.297166 -6.299414 1.003 
1185 755 -8.046855 -9.158563 1.024 
1195 755 -3.281615 -3.458314 1.028 
1205 755 0.682769 3.161441 1.237 
1215 755 0.339620 4.850697 1.728 
1225 755 -0.003529 6.539954 1.089 
1235 755 -2.173509 6.235192 1.188 
1245 755 -0.796084 4.226974 1.090 
1255 755 -3.619064 2.302977 1.125 
1265 755 -3.445220 2.606367 1.147 
1275 755 -3.835583 5.744890 1.192 
5 745 40.445088 -15.253314 1.376 
15 745 38.688477 -17.211927 1.376 
25 745 33.363620 -17.571453 1.157 
35 745 29.426943 -20.145717 1.499 
45 745 23.383363 -20.468761 1.186 
55 745 20.501674 -19.315812 1.381 
65 745 11.440674 -16.600628 1.466 
75 745 4.825710 -14.888721 1.126 
85 745 4.601537 -12.356920 1.178 
95 745 4.377364 -9.825119 1.157 
105 745 5.128669 -8.567451 1.374 
115 745 3.135104 -8.427846 1.691 
125 745 2.227496 -5.746390 1.648 
135 745 1.062932 -2.910005 1.009 
145 745 -0.743761 -2.786122 1.053 
155 745 -0.221726 -2.174014 1.145 
165 745 -2.567881 -0.970459 1.040 
175 745 -5.559934 0.330689 1.159 
185 745 -7.417437 1.521016 2.328 
195 745 -7.718998 2.082636 2.851 
205 745 -7.680357 1.878953 1.078 
215 745 -7.662413 1.641131 1.169 
225 745 -7.644290 1.457901 1.464 
235 745 -7.424041 1.500867 2.145 
245 745 -7.410731 1.536294 1.347 
255 745 -7.947880 0.641402 1.351 
265 745 -7.859334 0.558533 20.000 
275 745 -7.629908 0.791582 1.525 
285 745 -7.384761 1.096807 2.068 
295 745 -7.542156 1.103210 1.690 
305 745 -7.529924 1.220069 2.131 
315 745 -7.681715 1.035007 1.894 
325 745 -7.664918 0.550125 1.468 
335 745 -7.274454 0.726054 4.725 
345 745 -7.280064 0.767253 4.051 
355 745 -7.146010 1.117439 2.049 
365 745 -7.039621 0.817780 1.134 
375 745 -7.208963 0.363910 1.077 
385 745 -7.595647 0.144833 1.196 
395 745 -7.837534 -0.094149 5.982 
405 745 -7.933981 0.222260 28.785 
415 745 -7.780395 0.343068 34.937 
425 745 -7.674697 0.120316 2.513 
435 745 -7.526272 -0.177128 2.180 
445 745 -7.679380 -0.094929 3.887 
455 745 -7.608936 0.136855 3.415 
465 745 -7.521958 0.341552 2.410 
475 745 -7.665195 0.410181 3.160 
485 745 -7.796502 0.292608 3.155 
495 745 -7.857682 0.290227 2.884 
505 745 -7.794830 0.189203 2.340 
515 745 -7.609386 0.216380 1.958 
525 745 -7.644377 0.244160 3.527 
535 745 -7.675724 -0.017809 3.076 
545 745 -7.375895 -0.082924 2.953 
555 745 -7.359008 0.126539 2.527 
565 745 -7.550428 -0.301326 1.395 
575 745 -7.905542 -1.011040 1.751 
585 745 -7.663405 -0.842053 4.277 
595 745 -7.127339 -0.693161 5.735 
605 745 -7.199624 -0.559840 5.263 
615 745 -7.142627 -0.488564 7.165 
625 745 -7.143067 -0.410830 1.272 
635 745 -6.740403 -0.449771 2.540 
645 745 -6.416103 -0.308171 2.207 
655 745 -6.350865 -0.219055 1.980 
665 745 -6.616727 -0.404362 1.277 
675 745 -6.689970 -0.135295 12.479 
685 745 -6.388628 0.013153 7.486 
695 745 -6.261635 -0.121968 5.756 
705 745 -6.695016 0.143047 4.734 
715 745 -6.710777 0.603672 2.036 
725 745 -6.106505 0.645925 1.767 
735 745 -5.467328 0.303899 1.081 
745 745 -4.828151 -0.038127 1.343 
755 745 -5.507515 0.040495 1.816 
765 745 -5.423838 -0.372575 3.979 
775 745 -5.732414 -0.664114 2.173 
785 745 -5.354458 -0.857432 20.000 
795 745 -5.250844 -0.362396 6.229 
805 745 -5.176291 1.742653 1.312 
815 745 -5.342052 1.050575 1.254 
825 745 -5.593976 0.763293 4.823 
835 745 -5.439451 0.845153 12.032 
845 745 -5.267453 1.043786 6.149 
855 745 -5.151602 1.486568 1.018 
865 745 -5.086200 1.957710 2.373 
875 745 -4.906905 2.495658 2.622 
885 745 -4.149411 2.392038 1.392 
895 745 -3.692593 2.100169 1.011 
905 745 -3.242980 1.638235 19.505 
915 745 -3.079072 1.914862 4.513 
925 745 -2.890646 2.077653 1.878 
935 745 -3.628434 1.990435 1.241 
945 745 -4.075057 2.426907 1.680 
955 745 -4.030156 2.799815 1.067 
965 745 -4.174590 2.935620 1.369 
975 745 -3.981345 2.145332 2.384 
985 745 -4.092860 1.668252 2.142 
995 745 -5.034231 1.871781 2.937 
1005 745 -5.334430 1.643729 1.442 
1015 745 -5.802679 1.493803 1.127 
1025 745 -6.328117 1.356191 1.353 
1035 745 -6.374276 1.215791 7.893 
1045 745 -6.546887 0.956443 16.911 
1055 745 -6.519672 0.401044 9.320 
1065 745 -6.434447 0.260333 2.115 
1075 745 -6.684695 0.496572 1.885 
1085 745 -6.919640 0.915772 1.258 
1095 745 -6.785477 0.190086 1.217 
1105 745 -6.924858 -0.624959 1.573 
1115 745 -7.492112 -1.176251 2.406 
1125 745 -8.189936 -1.053235 1.593 
1135 745 -9.090231 -2.037968 3.980 
1145 745 -9.206236 -3.462697 4.628 
1155 745 -7.749514 -5.220562 7.290 
1165 745 -6.594899 -6.668241 1.292 
1175 745 -6.870785 -8.142291 1.299 
1185 745 -7.146672 -9.616341 1.677 
1195 745 -2.566186 -4.478591 1.024 
1205 745 0.629684 0.914202 1.561 
1215 745 0.682980 2.463459 1.212 
1225 745 0.736277 4.012716 1.311 
1235 745 -0.874054 4.760625 1.145 
1245 745 0.157258 0.074114 1.076 
1255 745 -2.765948 1.119823 1.346 
1265 745 -4.140629 1.794373 1.280 
1275 745 -5.888935 3.540622 1.325 
5 735 36.923548 -15.143255 1.057 
15 735 35.453213 -16.483455 1.057 
25 735 31.950084 -18.619153 1.543 
35 735 27.274285 -19.384796 1.737 
45 735 24.209151 -16.570904 1.181 
55 735 21.630910 -14.473423 1.031 
65 735 10.516713 -13.607995 1.081 
75 735 5.534526 -12.623998 1.110 
85 735 3.277640 -10.430446 1.001 
95 735 3.894454 -9.475697 1.270 
105 735 3.482479 -7.940239 1.697 
115 735 1.848726 -7.287839 1.240 
125 735 -0.128512 -0.665249 1.424 
135 735 -1.814454 0.016629 1.280 
145 735 -1.863272 -0.457270 1.051 
155 735 -2.080264 -1.016116 1.188 
165 735 -3.458627 0.086615 1.360 
175 735 -5.821850 1.234722 1.403 
185 735 -7.253221 1.830203 4.717 
195 735 -7.500867 2.013810 1.991 
205 735 -7.501383 1.841815 1.174 
215 735 -7.611061 1.333782 1.633 
225 735 -7.535204 1.367941 1.354 
235 735 -7.568251 1.513915 1.282 
245 735 -7.697584 1.530735 1.251 
255 735 -8.022579 1.002889 1.178 
265 735 -8.041607 0.498234 6.100 
275 735 -7.671861 0.727549 2.759 
285 735 -7.436440 0.873300 2.076 
295 735 -7.529721 0.892269 4.968 
305 735 -7.626556 0.936212 5.495 
315 735 -7.566462 0.745386 1.358 
325 735 -7.536837 0.624544 1.238 
335 735 -7.162044 0.606220 1.141 
345 735 -7.061019 0.552045 1.464 
355 735 -7.059278 0.765701 1.349 
365 735 -6.882845 0.550536 1.208 
375 735 -7.155645 0.366762 1.066 
385 735 -7.554728 0.131269 1.020 
395 735 -7.811840 0.093343 1.928 
405 735 -7.811079 0.304926 3.150 
415 735 -7.694083 0.539865 5.734 
425 735 -7.576603 0.557621 1.645 
435 735 -7.321740 0.157859 1.977 
445 735 -7.237586 -0.180471 1.607 
455 735 -7.242955 -0.106946 1.796 
465 735 -7.192218 0.422839 2.537 
475 735 -7.274281 0.487241 3.313 
485 735 -7.365146 0.096333 2.266 
495 735 -7.682408 -0.038195 1.127 
505 735 -7.567170 -0.002756 1.683 
515 735 -7.398300 0.317688 2.687 
525 735 -7.702144 0.358862 1.637 
535 735 -7.765684 0.064818 2.879 
545 735 -7.501928 -0.235455 2.040 
555 735 -7.083808 -0.037767 1.423 
565 735 -7.535046 -0.331024 1.579 
575 735 -7.950606 -0.784367 1.005 
585 735 -7.737219 -0.847708 20.000 
595 735 -7.105455 -0.177562 8.193 
605 735 -7.257018 -0.163607 4.379 
615 735 -7.279438 -0.160935 10.102 
625 735 -7.230209 -0.252325 1.294 
635 735 -6.678005 -0.397458 2.123 
645 735 -6.345745 -0.335557 3.182 
655 735 -6.432837 -0.137476 1.948 
665 735 -6.561654 -0.049420 1.203 
675 735 -6.737961 0.128532 3.839 
685 735 -6.660769 0.249810 1.646 
695 735 -6.490628 0.158542 5.552 
705 735 -6.655172 0.150370 1.695 
715 735 -6.518156 0.335591 2.458 
725 735 -6.083207 0.518995 3.656 
735 735 -5.205582 0.327914 1.123 
745 735 -5.064862 -0.242862 1.429 
755 735 -5.069067 -0.242765 3.042 
765 735 -5.256399 0.048835 1.686 
775 735 -5.044102 0.076722 1.614 
785 735 -4.789017 -0.324622 6.210 
795 735 -4.590620 -0.184115 3.327 
805 735 -4.786752 1.036590 1.867 
815 735 -4.910707 0.772247 16.893 
825 735 -4.994122 0.611169 5.133 
835 735 -4.921374 0.736335 3.033 
845 735 -4.701781 1.194314 2.691 
855 735 -4.374576 1.369448 1.125 
865 735 -4.520850 1.532214 1.069 
875 735 -4.315356 2.088188 1.130 
885 735 -4.043620 2.485953 1.273 
895 735 -3.258690 2.127542 1.831 
905 735 -3.258439 1.914421 5.250 
915 735 -2.933659 2.042398 9.427 
925 735 -3.004704 2.182845 2.064 
935 735 -3.387643 2.108629 1.547 
945 735 -3.908294 2.380622 1.358 
955 735 -4.034328 2.787375 1.080 
965 735 -4.032150 2.744163 1.928 
975 735 -3.945755 2.226419 3.803 
985 735 -3.859360 1.708675 1.128 