TITLE = "B00351"
VARIABLES = "x", "y", "u", "v", "sn"
ZONE T="Frame 0", I=128, J=80
5 795 -16.406731 -1.727854 1.072 
15 795 -13.989798 1.260365 1.072 
25 795 -9.724731 1.227276 1.328 
35 795 -5.459664 1.194187 1.060 
45 795 -1.194598 1.161099 1.226 
55 795 -1.341130 3.421407 1.054 
65 795 -0.001538 5.365399 1.297 
75 795 1.338054 7.309391 1.338 
85 795 2.677645 9.253383 1.108 
95 795 4.188939 0.848718 1.007 
105 795 5.225130 -6.899910 1.025 
115 795 6.261320 -14.648537 1.078 
125 795 7.297510 -22.397164 1.487 
135 795 5.463777 -25.006951 1.845 
145 795 3.630043 -27.616739 1.288 
155 795 1.973602 -25.285995 1.325 
165 795 0.380055 -14.589155 1.466 
175 795 -1.213491 -3.892314 1.992 
185 795 -1.827937 -1.333316 2.276 
195 795 -3.968123 -0.318654 1.780 
205 795 -5.111595 -0.235892 1.864 
215 795 -5.729462 0.341160 1.606 
225 795 -6.024636 0.381312 1.154 
235 795 -6.319810 0.421465 1.035 
245 795 -6.702233 0.344325 2.000 
255 795 -7.084657 0.267184 2.237 
265 795 -7.636011 1.720868 1.018 
275 795 -7.452629 1.751463 1.323 
285 795 -7.269248 1.782058 1.117 
295 795 -6.862056 2.273170 1.286 
305 795 -6.193035 2.660356 1.848 
315 795 -5.795724 2.611282 6.595 
325 795 -6.228135 2.032605 2.394 
335 795 -7.687363 0.374272 2.494 
345 795 -7.125193 -0.117265 2.816 
355 795 -6.563022 -0.608803 1.495 
365 795 -6.000851 -1.100341 2.506 
375 795 -4.865766 -0.384330 2.385 
385 795 -4.383087 -0.306154 2.002 
395 795 -4.369402 -0.498009 2.034 
405 795 -4.239103 -0.672165 1.271 
415 795 -4.108804 -0.846320 1.411 
425 795 -3.978505 -1.020475 3.592 
435 795 -3.856171 -1.039750 1.805 
445 795 -3.673008 -0.986866 1.416 
455 795 -3.612257 -1.114810 1.203 
465 795 -3.123876 -1.050901 1.269 
475 795 -2.651040 -0.880134 2.314 
485 795 -2.860648 -0.421488 6.137 
495 795 -3.068570 -0.505883 2.941 
505 795 -2.955185 -0.564318 1.853 
515 795 -2.648055 -0.612625 2.802 
525 795 -2.688163 -0.419845 3.596 
535 795 -2.873319 0.233389 3.701 
545 795 -2.723328 0.642038 637.435 
555 795 -2.072723 0.284686 1.294 
565 795 -2.033789 0.249893 2.229 
575 795 -1.994855 0.215101 1.519 
585 795 -2.244853 0.480393 2.105 
595 795 -2.494851 0.745686 5.013 
605 795 -1.776044 1.440531 2.243 
615 795 -2.205247 1.513287 1.469 
625 795 -2.698934 1.453789 1.873 
635 795 -2.357316 1.487954 1.758 
645 795 -2.321472 1.615953 2.684 
655 795 -3.883779 1.873026 2.498 
665 795 -4.879189 1.776046 2.185 
675 795 -4.804658 1.150185 1.505 
685 795 -4.244594 0.387127 2.964 
695 795 -4.038947 0.308214 1.935 
705 795 -3.833301 0.229301 1.831 
715 795 -3.627654 0.150388 1.485 
725 795 -2.624827 0.337530 2.143 
735 795 -1.698768 0.870911 2.061 
745 795 -1.114186 1.980141 4.238 
755 795 -1.295648 2.116838 29.921 
765 795 -1.753885 1.646218 2.650 
775 795 -1.949796 1.157842 2.612 
785 795 -2.191203 1.315479 3.204 
795 795 -2.843189 1.735211 2.521 
805 795 -3.235917 2.225316 2.272 
815 795 -3.461799 2.675785 3.315 
825 795 -3.155058 2.780902 1.796 
835 795 -2.511269 2.471693 1.671 
845 795 -2.383808 2.058514 2.560 
855 795 -2.869329 1.919557 2.117 
865 795 -2.974818 1.921206 1.452 
875 795 -2.612748 2.222969 1.933 
885 795 -1.966325 2.702656 1.581 
895 795 -2.004020 2.620064 1.361 
905 795 -2.561472 2.239003 2.152 
915 795 -2.895371 2.154568 2.072 
925 795 -3.066211 2.125749 1.375 
935 795 -3.298364 1.965691 1.377 
945 795 -3.389347 1.763068 1.455 
955 795 -2.446226 1.852251 1.860 
965 795 -1.613277 1.922323 3.067 
975 795 -1.910737 1.743642 1.573 
985 795 -2.411261 1.240652 1.454 
995 795 -3.331155 0.985922 2.013 
1005 795 -3.302660 0.953117 1.272 
1015 795 -3.069778 1.183728 3.406 
1025 795 -3.363076 1.759523 2.272 
1035 795 -4.157788 1.477628 349.362 
1045 795 -4.957126 0.735087 5.934 
1055 795 -5.502005 0.009367 1.457 
1065 795 -4.955724 0.218579 2.068 
1075 795 -4.409443 0.427792 1.313 
1085 795 -3.863163 0.637004 1.450 
1095 795 -2.669750 7.434461 1.167 
1105 795 -0.303643 19.052027 1.008 
1115 795 2.175565 26.722870 1.075 
1125 795 -5.468393 32.654218 1.121 
1135 795 -4.748436 32.998916 1.096 
1145 795 -4.028479 33.343613 1.413 
1155 795 3.823045 26.593791 1.196 
1165 795 0.443303 25.810591 1.063 
1175 795 -2.936439 25.027391 1.330 
1185 795 -6.316181 24.244191 1.058 
1195 795 -9.695923 23.460990 1.073 
1205 795 -10.623556 15.105565 1.024 
1215 795 -11.551190 6.750140 1.220 
1225 795 -12.478824 -1.605285 1.333 
1235 795 -17.660998 -4.850999 1.110 
1245 795 -17.434982 -9.653945 1.012 
1255 795 -11.556189 -11.714928 1.123 
1265 795 -2.864200 -10.535527 1.328 
1275 795 0.000000 -0.000000 1.350 
5 785 -18.020024 -1.836117 1.072 
15 785 -16.345402 0.307619 1.072 
25 785 -12.349192 1.173256 1.328 
35 785 -11.720858 0.565311 1.060 
45 785 -4.875118 -0.065643 1.226 
55 785 -4.399189 3.911938 1.054 
65 785 -2.784800 6.927737 1.297 
75 785 -1.170411 9.943537 1.338 
85 785 0.471649 7.013733 1.108 
95 785 2.113709 4.083929 1.007 
105 785 4.212380 -3.814407 1.025 
115 785 5.304716 -7.291591 1.078 
125 785 4.123753 -16.414451 1.487 
135 785 3.520222 -24.577659 1.845 
145 785 2.607189 -21.413180 1.288 
155 785 1.281899 -14.518102 1.325 
165 785 -0.674836 -4.454500 1.466 
175 785 -1.470384 -3.309237 1.992 
185 785 -2.600652 -1.615748 2.276 
195 785 -4.302422 -0.386871 1.780 
205 785 -5.383824 -0.255117 1.864 
215 785 -5.772335 0.301348 1.606 
225 785 -5.964707 0.609425 1.154 
235 785 -6.234403 0.375704 1.035 
245 785 -6.561682 0.058849 2.000 
255 785 -6.992112 0.400971 2.237 
265 785 -7.466238 1.808481 1.018 
275 785 -7.339914 1.800155 1.323 
285 785 -7.213589 1.791830 1.117 
295 785 -6.808733 2.273507 1.286 
305 785 -6.120397 2.640119 1.848 
315 785 -5.626674 2.810764 6.595 
325 785 -5.930183 2.363083 2.394 
335 785 -6.755607 1.156465 2.494 
345 785 -7.178775 -0.201655 2.816 
355 785 -6.341756 -0.771763 1.495 
365 785 -5.701547 -0.683673 2.506 
375 785 -4.739043 -0.067257 2.385 
385 785 -4.239545 -0.209755 2.002 
395 785 -4.284097 -0.458330 2.034 
405 785 -4.172910 -0.353346 1.271 
415 785 -4.140511 -0.607180 1.411 
425 785 -4.108111 -0.861014 3.592 
435 785 -4.012105 -0.850813 1.805 
445 785 -3.859924 -0.907062 1.416 
455 785 -3.810750 -0.947055 1.203 
465 785 -3.362863 -0.959374 1.269 
475 785 -2.898089 -0.866287 2.314 
485 785 -3.010879 -0.377487 6.137 
495 785 -3.017868 -0.333813 2.941 
505 785 -2.913047 -0.427338 1.853 
515 785 -2.656376 -0.400566 2.802 
525 785 -2.641283 -0.186354 3.596 
535 785 -2.752188 0.775833 3.701 
545 785 -2.703598 0.720621 637.435 
555 785 -2.042552 0.375671 1.294 
565 785 -1.681422 0.102654 2.229 
575 785 -1.942640 0.406396 1.519 
585 785 -2.242296 1.037026 2.105 
595 785 -2.096588 1.180231 5.013 
605 785 -1.596446 1.630946 2.243 
615 785 -1.998077 1.611776 1.469 
625 785 -2.527175 1.503558 1.873 
635 785 -2.310009 1.470981 1.758 
645 785 -2.328880 1.580271 2.684 
655 785 -3.782492 1.804896 2.498 
665 785 -4.695271 1.723316 2.185 
675 785 -4.508468 1.149376 1.505 
685 785 -4.255428 0.611301 2.964 
695 785 -4.026065 0.540264 1.935 
705 785 -3.738298 0.538431 1.831 
715 785 -3.573264 0.646724 1.485 
725 785 -2.601182 0.757693 2.143 
735 785 -1.806181 1.183148 2.061 
745 785 -1.398845 2.004793 4.238 
755 785 -1.585573 2.039602 29.921 
765 785 -1.996766 1.604895 2.650 
775 785 -2.239019 1.160394 2.612 
785 785 -2.393452 1.334687 3.204 
795 785 -2.913913 1.797921 2.521 
805 785 -3.224201 2.289597 2.272 
815 785 -3.462648 2.678500 3.315 
825 785 -3.152244 2.769609 1.796 
835 785 -2.562835 2.538016 1.671 
845 785 -2.428359 2.143786 2.560 
855 785 -2.855775 1.952956 2.117 
865 785 -2.962016 1.912159 1.452 
875 785 -2.669519 2.207688 1.933 
885 785 -2.292042 2.509025 1.581 
895 785 -2.166933 2.535417 1.361 
905 785 -2.673645 2.172936 2.152 
915 785 -2.956709 2.097758 2.072 
925 785 -3.093063 2.025327 1.375 
935 785 -3.263274 1.816029 1.377 
945 785 -3.282458 1.638049 1.455 
955 785 -2.442261 1.728503 1.860 
965 785 -1.743130 1.748087 3.067 
975 785 -2.095482 1.612945 1.573 
985 785 -2.734148 1.386224 1.454 
995 785 -3.491726 0.974469 2.013 
1005 785 -3.428185 0.904300 1.272 
1015 785 -3.208121 1.078056 3.406 
1025 785 -3.536176 1.568083 2.272 
1035 785 -4.258638 1.329971 349.362 
1045 785 -5.018347 0.585639 5.934 
1055 785 -5.434660 -0.025134 1.457 
1065 785 -5.565618 -0.803509 2.068 
1075 785 -5.027720 -0.796275 1.313 
1085 785 -3.735704 1.606457 1.450 
1095 785 -2.232596 7.912685 1.167 
1105 785 1.290631 18.424535 1.008 
1115 785 2.866809 27.666795 1.075 
1125 785 -4.201397 34.221442 1.121 
1135 785 -5.997579 36.597083 1.096 
1145 785 -2.411414 35.074978 1.413 
1155 785 0.351491 28.556425 1.196 
1165 785 -4.028118 27.769905 1.063 
1175 785 -8.407728 26.983386 1.330 
1185 785 -8.599395 23.087502 1.058 
1195 785 -8.791061 19.191617 1.073 
1205 785 -9.098490 13.447928 1.024 
1215 785 -9.795769 6.731497 1.220 
1225 785 -10.493047 0.015067 1.333 
1235 785 -15.899770 -2.477435 1.110 
1245 785 -17.013928 -5.668452 1.012 
1255 785 -11.572871 -8.472248 1.123 
1265 785 -4.337711 -6.625084 1.328 
1275 785 0.000000 -0.000000 1.350 
5 775 -16.668090 -7.685221 1.466 
15 775 -14.984019 -6.863348 1.466 
25 775 -11.757946 -2.529003 1.391 
35 775 -7.211875 -1.875703 1.370 
45 775 2.464504 -2.106019 1.308 
55 775 6.417296 -0.505795 2.229 
65 775 2.886730 5.539306 1.004 
75 775 -0.788567 9.407406 1.821 
85 775 -0.736437 1.525742 1.348 
95 775 -0.684307 -6.355922 1.171 
105 775 1.493335 -5.415990 1.397 
115 775 1.256284 -12.592044 1.548 
125 775 1.339010 -12.221278 1.089 
135 775 0.666118 -4.318700 1.549 
145 775 0.626503 -13.156916 1.259 
155 775 -0.551191 -5.205992 1.340 
165 775 -2.151540 -2.585733 2.577 
175 775 -3.267043 -2.537134 1.034 
185 775 -4.253530 -1.390074 1.039 
195 775 -5.302307 -0.704702 1.945 
205 775 -5.657040 -0.455708 1.947 
215 775 -5.618843 0.305827 1.075 
225 775 -5.538225 0.577257 1.693 
235 775 -5.720837 0.292244 1.310 
245 775 -6.191368 -0.002273 1.757 
255 775 -6.296716 0.223277 4.077 
265 775 -6.747663 1.415801 1.283 
275 775 -6.742950 1.949120 1.081 
285 775 -6.357992 1.425429 1.322 
295 775 -6.957561 1.722703 1.627 
305 775 -6.411208 2.033820 1.632 
315 775 -5.428469 2.930945 3.890 
325 775 -5.800480 3.217465 4.790 
335 775 -5.823851 1.938657 2.246 
345 775 -5.859155 0.419201 1.111 
355 775 -5.177135 -0.317737 1.429 
365 775 -5.044396 -0.210468 1.920 
375 775 -4.676852 0.104463 1.494 
385 775 -4.214862 -0.185785 2.603 
395 775 -4.239210 -0.844659 1.917 
405 775 -4.029558 -0.761903 1.314 
415 775 -3.976417 -0.208683 1.098 
425 775 -4.293209 -0.403520 1.292 
435 775 -4.202108 -0.385178 1.184 
445 775 -4.035942 -0.472807 1.438 
455 775 -3.956216 -0.484170 1.050 
465 775 -3.901101 -0.648159 1.155 
475 775 -3.471252 -0.092151 1.660 
485 775 -3.090111 -0.032110 2.825 
495 775 -2.869199 0.060776 4.319 
505 775 -2.741218 0.071133 2.771 
515 775 -2.521519 -0.019938 2.054 
525 775 -2.188364 0.316516 2.065 
535 775 -2.631058 1.318277 3.306 
545 775 -2.413878 1.142580 2.747 
555 775 -1.920009 0.867101 2.570 
565 775 -1.451589 0.539477 3.770 
575 775 -1.765203 0.815583 2.596 
585 775 -1.878322 1.320012 2.392 
595 775 -1.711980 1.560334 1.575 
605 775 -1.341156 1.686648 3.498 
615 775 -1.545738 1.660747 2.105 
625 775 -1.965056 1.226023 1.492 
635 775 -1.972861 1.378198 2.495 
645 775 -2.454133 1.596424 2.821 
655 775 -3.450937 1.604074 2.147 
665 775 -4.253896 1.525895 1.937 
675 775 -4.212279 1.148566 2.602 
685 775 -4.351300 0.863350 2.080 
695 775 -4.097415 0.951320 1.393 
705 775 -3.726979 1.232353 1.378 
715 775 -2.990708 1.374074 1.078 
725 775 -2.253710 1.464203 1.412 
735 775 -1.751520 1.922826 1.306 
745 775 -1.520258 2.071034 2.631 
755 775 -2.092228 1.681310 1.399 
765 775 -2.671024 1.048899 2.313 
775 775 -2.775491 0.876415 1.484 
785 775 -2.648918 1.384344 1.874 
795 775 -2.718983 2.077669 2.624 
805 775 -3.047119 2.404647 1.667 
815 775 -3.431545 2.687288 2.547 
825 775 -3.260398 2.767710 2.415 
835 775 -2.736691 2.586044 1.626 
845 775 -2.529405 2.311693 3.203 
855 775 -2.330002 1.690254 1.732 
865 775 -3.006895 1.731047 1.030 
875 775 -2.547805 1.910507 2.045 
885 775 -2.617758 2.315395 2.443 
895 775 -2.724694 2.339425 24.231 
905 775 -2.929041 2.118705 2.687 
915 775 -3.395033 1.902920 2.002 
925 775 -3.126784 1.757181 12.976 
935 775 -3.204314 1.541457 5.886 
945 775 -3.253394 1.358406 2.852 
955 775 -2.652839 1.585919 3.242 
965 775 -2.451318 1.754508 2.682 
975 775 -2.878420 1.512193 1.220 
985 775 -3.071430 1.566245 1.225 
995 775 -3.494624 1.413576 1.872 
1005 775 -3.514542 1.057645 1.524 
1015 775 -3.445594 1.143986 6.868 
1025 775 -3.803036 1.406496 1.711 
1035 775 -4.134278 1.331888 3.327 
1045 775 -4.391978 0.713612 1.847 
1055 775 -4.829739 0.180487 3.718 
1065 775 -5.166594 -0.669807 20.000 
1075 775 -4.422951 -1.144031 1.801 
1085 775 -3.315624 0.645446 2.014 
1095 775 -0.491679 6.979717 1.190 
1105 775 2.980270 16.411011 1.078 
1115 775 2.948662 25.619946 1.383 
1125 775 1.527686 32.480700 1.101 
1135 775 -2.700482 36.675581 1.064 
1145 775 -4.807351 36.885853 1.407 
1155 775 -3.120062 30.519059 1.157 
1165 775 -6.113128 28.873201 1.608 
1175 775 -9.106194 27.227342 1.088 
1185 775 -10.053616 22.657945 1.113 
1195 775 -9.562315 16.114386 1.675 
1205 775 -8.188051 8.176178 1.011 
1215 775 -8.501058 3.434865 1.394 
1225 775 -11.464011 2.399356 1.889 
1235 775 -15.394787 1.384941 1.042 
1245 775 -18.294016 1.639096 1.239 
1255 775 -16.739869 2.224067 1.703 
1265 775 -12.867640 3.893135 1.330 
1275 775 -6.719770 9.040242 1.107 
5 765 -14.911694 -3.238068 1.174 
15 765 -10.826112 -10.490181 1.174 
25 765 -8.210361 -5.272049 1.478 
35 765 -7.162292 -4.710219 1.083 
45 765 0.459558 -4.902683 1.016 
55 765 5.619293 -2.737461 1.744 
65 765 2.678892 3.014640 1.143 
75 765 -0.631742 5.152959 1.433 
85 765 -0.868761 2.470074 1.155 
95 765 -0.730922 -4.351886 1.240 
105 765 -1.225709 -7.017573 1.122 
115 765 -1.502732 -8.840104 1.165 
125 765 -1.424255 -6.969998 1.538 
135 765 -1.281753 -2.236001 1.099 
145 765 -1.354184 -4.900651 1.075 
155 765 -4.506882 -0.735893 1.777 
165 765 -6.393989 0.292603 1.263 
175 765 -6.151888 -0.711488 1.240 
185 765 -5.647602 -1.081557 3.207 
195 765 -5.808144 -0.587392 3.603 
205 765 -5.700687 -0.007176 2.591 
215 765 -5.325862 0.339484 1.378 
225 765 -5.234654 0.371059 1.769 
235 765 -5.235401 0.212894 2.387 
245 765 -5.391623 -0.215365 2.853 
255 765 -5.578525 -0.108116 1.551 
265 765 -5.790005 0.731710 1.139 
275 765 -5.492949 0.964119 1.464 
285 765 -6.142248 0.937172 1.107 
295 765 -6.259547 0.473220 1.249 
305 765 -5.884983 1.301865 1.035 
315 765 -5.531203 2.375173 4.185 
325 765 -5.533030 2.759486 5.224 
335 765 -5.586687 1.430774 1.577 
345 765 -4.631180 0.840523 1.016 
355 765 -4.936160 0.361863 1.107 
365 765 -5.312508 0.238255 1.366 
375 765 -4.898310 0.113581 1.535 
385 765 -4.294611 -0.415534 1.618 
395 765 -4.109668 -1.685776 3.280 
405 765 -4.137075 -1.499772 3.919 
415 765 -4.427045 -0.762053 1.204 
425 765 -4.650497 -0.003151 1.625 
435 765 -4.360925 0.163838 1.113 
445 765 -4.052810 0.361019 1.629 
455 765 -3.868813 0.383281 1.365 
465 765 -3.504110 0.312996 1.436 
475 765 -3.208758 0.353567 1.363 
485 765 -2.663282 0.622278 1.618 
495 765 -2.212393 1.026599 1.759 
505 765 -2.199952 1.175473 3.133 
515 765 -2.108596 0.948611 1.578 
525 765 -1.710081 1.038140 1.098 
535 765 -1.996717 1.299102 1.920 
545 765 -1.970829 1.389084 3.520 
555 765 -1.232463 0.805065 5.389 
565 765 -0.979709 0.749368 2.143 
575 765 -1.667310 1.212390 3.427 
585 765 -1.802609 1.690596 2.732 
595 765 -1.476951 1.737320 2.563 
605 765 -1.296074 1.524822 2.594 
615 765 -1.464778 1.654784 2.570 
625 765 -2.004120 1.279763 3.709 
635 765 -2.149873 1.313411 2.143 
645 765 -2.607046 1.337868 2.232 
655 765 -3.400091 1.376307 1.804 
665 765 -3.739691 1.533815 2.565 
675 765 -3.798588 1.348937 2.688 
685 765 -4.071956 1.329567 2.552 
695 765 -4.025463 1.312343 1.243 
705 765 -3.454800 1.723252 2.337 
715 765 -2.648712 1.909829 1.599 
725 765 -2.163229 2.166006 1.238 
735 765 -1.992718 2.422861 1.595 
745 765 -1.996136 2.260880 3.453 
755 765 -2.383373 1.895412 4.838 
765 765 -2.826572 1.461381 2.592 
775 765 -3.070102 1.269270 1.816 
785 765 -2.998304 1.390501 2.007 
795 765 -2.519470 2.160717 1.923 
805 765 -2.914348 2.485221 1.821 
815 765 -3.018132 2.759725 2.080 
825 765 -2.932776 2.823348 1.786 
835 765 -2.751088 2.748836 3.727 
845 765 -2.647747 2.497716 1.826 
855 765 -2.820536 1.718826 2.305 
865 765 -3.071593 1.601893 1.185 
875 765 -2.699050 1.862741 1.237 
885 765 -2.880037 2.072842 3.534 
895 765 -3.077489 2.058380 18.748 
905 765 -3.183344 1.835079 1.667 
915 765 -3.406893 1.756386 2.552 
925 765 -3.453847 1.528895 3.349 
935 765 -3.376332 1.308377 2.075 
945 765 -3.243221 1.333777 2.405 
955 765 -2.656562 1.538080 2.587 
965 765 -2.739351 1.445687 1.404 
975 765 -3.075242 1.272044 2.484 
985 765 -3.331360 1.666067 2.152 
995 765 -3.585033 1.534591 1.474 
1005 765 -3.324717 1.038258 1.232 
1015 765 -3.550406 1.050431 1.544 
1025 765 -3.790128 1.215749 2.446 
1035 765 -4.272073 1.115532 2.788 
1045 765 -4.148715 0.718962 2.810 
1055 765 -4.496599 0.241767 14.702 
1065 765 -4.574246 -0.345311 20.000 
1075 765 -4.374417 -0.495158 1.973 
1085 765 -2.938045 0.050955 1.340 
1095 765 -1.667707 4.884949 1.291 
1105 765 0.260922 13.515863 1.229 
1115 765 1.666815 23.797131 1.096 
1125 765 1.686952 31.312572 1.535 
1135 765 -1.308965 34.402049 1.208 
1145 765 -4.477205 33.807020 1.037 
1155 765 -1.960413 27.034373 1.140 
1165 765 -2.875408 28.237970 1.626 
1175 765 -1.044727 24.055024 1.025 
1185 765 -2.266577 21.233015 1.311 
1195 765 -3.488426 18.411006 1.481 
1205 765 -4.531124 9.000334 1.053 
1215 765 -5.336560 3.800782 1.789 
1225 765 -8.129625 2.487354 2.325 
1235 765 -11.961526 3.180527 1.715 
1245 765 -15.397124 3.982197 1.089 
1255 765 -17.675047 5.873854 1.260 
1265 765 -16.488079 10.502483 1.375 
1275 765 -17.573897 7.728046 1.435 
5 755 -13.155298 1.209085 1.090 
15 755 -6.539102 -7.245177 1.090 
25 755 -3.792480 -6.089353 1.220 
35 755 -2.042097 -5.839130 1.009 
45 755 1.994204 -6.106916 1.234 
55 755 4.821291 -4.969128 1.100 
65 755 3.110145 -1.919149 1.741 
75 755 -0.474918 0.898512 1.086 
85 755 -1.086795 2.354703 1.408 
95 755 -0.696584 -2.745187 1.584 
105 755 -1.066984 -1.731672 1.107 
115 755 -2.563368 -5.366663 1.157 
125 755 -2.365843 -4.433093 1.763 
135 755 -2.663206 -2.136110 1.016 
145 755 -3.337147 -1.263618 1.029 
155 755 -6.195915 -0.070581 1.534 
165 755 -6.423436 -0.126967 1.927 
175 755 -6.201703 -0.359960 1.185 
185 755 -5.469708 -0.599947 3.445 
195 755 -5.330179 0.019597 3.023 
205 755 -4.949884 0.540462 3.468 
215 755 -5.063788 0.301726 2.979 
225 755 -5.131658 0.140078 1.585 
235 755 -5.281013 -0.124525 1.392 
245 755 -5.035642 -0.389542 1.501 
255 755 -5.057459 -0.217215 1.169 
265 755 -5.772938 0.299515 1.300 
275 755 -6.131646 0.417944 1.063 
285 755 -5.926505 0.448916 1.104 
295 755 -6.080133 0.572151 1.506 
305 755 -6.233761 0.695385 1.028 
315 755 -5.870311 0.837728 1.020 
325 755 -5.627498 1.102009 1.254 
335 755 -5.349523 0.922892 1.447 
345 755 -4.583800 0.873217 1.103 
355 755 -4.700835 1.007928 1.158 
365 755 -5.187662 0.939701 1.309 
375 755 -4.927930 0.340807 1.029 
385 755 -4.452985 -0.540594 2.208 
395 755 -4.191474 -1.564826 4.629 
405 755 -4.216323 -1.414168 146.211 
415 755 -4.639623 -0.759206 1.062 
425 755 -4.962526 0.006277 1.697 
435 755 -4.519742 0.712855 2.432 
445 755 -3.720614 1.278450 3.517 
455 755 -3.400016 1.355724 3.452 
465 755 -2.887553 1.277767 1.377 
475 755 -2.499339 1.035117 1.915 
485 755 -1.788755 1.363769 2.235 
495 755 -1.496085 1.431086 1.094 
505 755 -1.617110 2.370200 1.234 
515 755 -1.439933 2.095837 1.365 
525 755 -1.099818 1.370086 1.844 
535 755 -1.485742 0.882928 2.637 
545 755 -1.532285 0.599717 2.305 
555 755 -1.041612 0.627814 2.463 
565 755 -1.034891 0.661540 1.533 
575 755 -1.947663 1.013215 1.649 
585 755 -1.799878 1.480309 2.856 
595 755 -1.411155 1.233748 3.103 
605 755 -1.334858 1.033244 2.942 
615 755 -1.578111 1.540171 1.788 
625 755 -1.818645 1.087475 2.873 
635 755 -2.223990 1.214838 1.139 
645 755 -2.727339 1.225761 3.513 
655 755 -3.316171 1.297421 2.614 
665 755 -3.554516 1.406290 4.942 
675 755 -3.343710 1.515898 2.747 
685 755 -3.734196 1.566458 2.699 
695 755 -3.888046 1.464227 2.659 
705 755 -2.932427 1.841838 4.264 
715 755 -2.848110 2.197325 2.780 
725 755 -2.689152 2.374644 4.310 
735 755 -2.591301 2.431118 3.534 
745 755 -2.722677 1.725718 1.095 
755 755 -3.020684 1.830558 2.183 
765 755 -3.257935 2.003112 2.118 
775 755 -3.364713 1.662124 2.520 
785 755 -2.824071 1.617620 2.403 
795 755 -2.077328 2.050981 4.187 
805 755 -2.553245 2.450025 2.098 
815 755 -2.751606 2.729469 2.292 
825 755 -2.781667 2.750935 10.108 
835 755 -2.688362 2.641083 4.021 
845 755 -2.811977 2.467984 2.483 
855 755 -2.796055 2.194640 2.224 
865 755 -3.032283 2.021882 1.081 
875 755 -2.933217 2.026810 1.238 
885 755 -3.056565 1.817437 2.343 
895 755 -3.216043 1.768204 1.980 
905 755 -3.387532 1.598690 1.589 
915 755 -3.402588 1.541627 1.330 
925 755 -3.214682 1.264734 1.854 
935 755 -3.421395 1.106103 2.510 
945 755 -3.140487 1.329059 4.291 
955 755 -2.617782 1.203904 9.469 
965 755 -2.438571 0.938807 1.871 
975 755 -3.077742 0.962900 1.420 
985 755 -3.361357 1.702419 1.867 
995 755 -3.575149 1.622670 1.971 
1005 755 -3.664691 1.091562 3.121 
1015 755 -3.580195 1.002307 2.501 
1025 755 -3.765986 1.065666 7.156 
1035 755 -3.951524 1.037279 12.171 
1045 755 -3.998462 0.661090 2.892 
1055 755 -4.267360 0.212800 42.851 
1065 755 -4.304712 -0.452942 1361.689 
1075 755 -3.953851 -1.161297 2.044 
1085 755 -2.976338 -0.177611 24.626 
1095 755 -1.601025 4.130848 3.155 
1105 755 -0.513598 11.781129 1.099 
1115 755 0.515805 23.904425 2.956 
1125 755 1.240796 30.984126 3.400 
1135 755 -0.039839 31.923253 1.947 
1145 755 -2.159712 28.384925 1.095 
1155 755 -0.800764 23.549686 1.309 
1165 755 -1.034974 22.345277 1.673 
1175 755 -0.037268 19.077137 1.051 
1185 755 -0.229310 16.111415 1.622 
1195 755 -0.551284 13.713446 1.429 
1205 755 -1.519551 6.279079 1.418 
1215 755 -2.851911 0.882482 1.084 
1225 755 -4.670446 0.542427 1.733 
1235 755 -7.335057 2.052214 1.762 
1245 755 -12.231921 3.164498 1.251 
1255 755 -18.325587 5.425318 1.257 
1265 755 -25.967637 7.692825 1.002 
1275 755 -28.428024 6.415850 1.025 
5 745 -2.772728 -4.426180 1.373 
15 745 -2.252092 -4.000174 1.373 
25 745 -2.618421 -5.006621 1.089 
35 745 -0.186993 -5.717605 1.054 
45 745 5.434455 -5.974085 1.146 
55 745 2.595579 -4.423996 1.049 
65 745 -0.444853 -2.570606 1.112 
75 745 -1.981525 -1.750114 1.345 
85 745 -2.456492 -0.310755 1.000 
95 745 -0.662245 -1.138487 1.542 
105 745 -1.954202 -1.148857 1.088 
115 745 -3.624004 -1.893223 1.213 
125 745 -3.307430 -1.896187 1.010 
135 745 -2.688690 -1.858307 1.418 
145 745 -3.845099 -0.591622 1.628 
155 745 -4.783734 -0.341286 1.670 
165 745 -5.123424 -0.672492 1.950 
175 745 -4.651779 -1.132444 1.354 
185 745 -4.777508 -0.870167 1.473 
195 745 -4.744426 0.113935 5.031 
205 745 -4.646875 0.572680 2.751 
215 745 -5.003451 0.363673 2.405 
225 745 -5.009569 0.276340 1.363 
235 745 -4.999274 0.152338 1.226 
245 745 -5.189493 0.108592 3.088 
255 745 -5.322773 0.040885 9.188 
265 745 -5.142496 0.266495 1.535 
275 745 -5.072017 0.613601 1.155 
285 745 -6.790395 0.470625 2.716 
295 745 -6.516769 0.558925 19.511 
305 745 -6.336425 0.799406 2.535 
315 745 -5.881926 0.517890 1.626 
325 745 -5.622983 -0.352729 2.429 
335 745 -5.189761 0.453443 2.617 
345 745 -4.732195 0.785872 1.933 
355 745 -4.923612 1.277574 2.358 
365 745 -5.195187 1.598652 1.854 
375 745 -4.863400 1.067006 1.008 
385 745 -4.506607 0.066719 1.633 
395 745 -4.277523 -0.823884 4.166 
405 745 -4.512291 -0.764267 2.370 
415 745 -4.094668 0.358058 1.451 
425 745 -3.471207 0.592155 1.930 
435 745 -3.493013 0.990343 4.785 
445 745 -3.027817 1.767597 14.996 
455 745 -2.739223 1.902475 12.223 
465 745 -2.752516 1.725372 2.072 
475 745 -1.839041 1.672355 1.894 
485 745 -1.361955 1.452377 1.424 
495 745 -0.980089 1.454177 1.296 
505 745 -1.018181 2.375182 3.715 
515 745 -1.046112 2.874373 2.433 
525 745 -1.194992 1.820535 3.570 
535 745 -1.468543 0.562843 4.050 
545 745 -1.657110 0.093077 3.656 
555 745 -1.450632 0.108653 3.411 
565 745 -1.480662 0.295743 1.207 
575 745 -1.856948 0.677392 1.358 
585 745 -2.017549 0.863407 1.584 
595 745 -1.842904 1.051732 3.186 
605 745 -1.727865 1.172312 1.411 
615 745 -1.750837 1.257820 1.194 
625 745 -1.906800 1.230278 1.916 
635 745 -2.548319 0.583437 3.864 
645 745 -2.768601 0.660897 2.869 
655 745 -2.906513 0.973679 3.363 
665 745 -3.065348 1.106209 2.884 
675 745 -2.677553 1.540070 1.877 
685 745 -2.983538 1.796280 1.804 
695 745 -3.010677 1.815253 1.695 
705 745 -3.037817 1.834225 4.592 
715 745 -3.161654 2.287138 3.789 
725 745 -3.116689 2.365815 8.731 
735 745 -3.128803 2.184077 4.005 
745 745 -3.245819 1.984621 1.493 
755 745 -3.406830 1.821590 1.891 
765 745 -3.408352 1.998755 4.942 
775 745 -3.295240 1.915138 4.125 
785 745 -2.367813 1.989891 2.190 
795 745 -2.166369 2.357112 1.007 
805 745 -2.355379 2.388515 2.032 
815 745 -2.667508 2.561288 2.703 
825 745 -2.690462 2.543227 2.791 
835 745 -2.710006 2.486959 2.085 
845 745 -2.897746 2.523192 1.195 
855 745 -2.954729 2.421757 1.257 
865 745 -3.083211 2.435142 1.840 
875 745 -3.186742 2.161980 1.620 
885 745 -3.215946 1.739729 1.364 
895 745 -3.437088 1.529899 4.448 
905 745 -3.540217 1.488413 2.521 
915 745 -3.253280 1.487817 7.606 
925 745 -2.767472 1.440642 3.008 
935 745 -2.861200 1.375604 2.261 
945 745 -2.971373 1.296637 8.657 
955 745 -2.516683 0.853931 12.760 
965 745 -2.582829 0.795141 1.890 
975 745 -2.739690 1.111075 2.237 
985 745 -2.964085 1.370897 1.849 
995 745 -3.274598 1.425211 1.146 
1005 745 -3.439294 1.198049 1.145 
1015 745 -3.548057 1.035473 2.932 
1025 745 -3.684868 1.100981 4.006 
1035 745 -3.958391 1.074947 1.092 
1045 745 -4.045446 1.134644 1.178 
1055 745 -3.733618 0.357388 1.859 
1065 745 -3.737020 -0.559785 2.130 
1075 745 -3.533285 -1.827436 19.436 
1085 745 -2.619601 -1.427460 20.000 
1095 745 -1.521737 3.094738 2.612 
1105 745 -0.321273 13.002223 1.766 
1115 745 0.840226 23.712747 15.772 
1125 745 1.726000 28.973233 25.849 
1135 745 1.289275 27.845956 8.771 
1145 745 0.157782 22.962830 1.016 
1155 745 -0.449322 18.602557 1.084 
1165 745 0.805461 16.452583 1.139 
1175 745 0.970190 14.099251 1.114 
1185 745 0.908080 10.565775 1.033 
1195 745 0.705261 7.677701 1.034 
1205 745 -0.066515 0.651995 1.036 
1215 745 -1.403856 -4.275737 1.506 
1225 745 -1.816586 -2.886042 1.066 
1235 745 -4.253939 -0.703639 1.533 
1245 745 -10.887306 0.973509 1.563 
1255 745 -20.693666 3.088449 1.014 
1265 745 -35.447195 4.883167 1.091 
1275 745 -30.768686 5.316104 1.144 
5 735 -2.016794 -5.885236 1.304 
15 735 -1.787843 -5.200091 1.304 
25 735 -2.093952 -5.105313 1.126 
35 735 -2.046172 -5.115933 1.334 
45 735 2.586138 -3.702238 1.108 
55 735 0.369867 -3.878865 1.015 
65 735 -3.999850 -3.222064 1.057 
75 735 -7.108505 -1.594549 1.494 
85 735 -5.046421 0.541877 1.136 
95 735 -3.102129 -0.055644 1.351 
105 735 -2.841421 -0.566043 1.031 
115 735 -3.764727 -1.128651 1.538 
125 735 -3.282964 -1.193964 1.319 
135 735 -3.176237 -0.997119 1.376 
145 735 -3.770517 -0.342490 1.067 
155 735 -4.430667 -0.398576 1.146 
165 735 -4.438792 -0.789011 2.311 
175 735 -4.641130 -1.090666 1.022 
185 735 -4.800039 -0.591570 1.180 
195 735 -4.680109 0.096911 2.425 
205 735 -4.544171 0.513821 3.668 
215 735 -5.019762 0.452740 2.197 
225 735 -4.853479 0.352742 2.378 
235 735 -4.829547 0.547111 88.172 
245 735 -5.128944 0.270981 20.000 
255 735 -5.276270 0.041600 20.000 
265 735 -5.318467 0.062377 2.723 
275 735 -5.040732 0.418865 1.214 
285 735 -5.588023 0.492848 1.457 
295 735 -6.526151 0.510765 1.269 
305 735 -6.439089 0.903426 1.301 
315 735 -5.893541 0.198051 2.648 
325 735 -5.229946 -0.253419 6.300 
335 735 -5.029999 -0.016005 3.566 
345 735 -5.011964 0.750718 1.015 
355 735 -5.146390 1.547220 1.828 
365 735 -5.223682 1.130158 1.622 
375 735 -4.988119 0.569921 2.829 
385 735 -4.695641 0.358774 3.207 
395 735 -4.714545 0.239078 2.236 
405 735 -4.436550 0.391750 1.437 
415 735 -4.104749 0.449083 1.441 
425 735 -3.491629 0.322485 1.989 
435 735 -2.727760 0.728878 3.027 
445 735 -2.404725 1.684978 8.598 
455 735 -2.223216 1.968751 10.543 
465 735 -2.420156 1.683832 1.245 
475 735 -2.419272 1.651736 1.653 
485 735 -1.393506 1.200615 1.032 
495 735 -0.547078 1.543755 2.042 
505 735 -0.638193 1.958849 2.725 
515 735 -0.928922 2.290413 1.412 
525 735 -1.202870 1.579962 2.803 
535 735 -1.531269 0.390325 17.610 
545 735 -1.715120 -0.126432 29.731 
555 735 -1.587277 -0.150645 3.277 
565 735 -1.415943 0.101344 1.678 
575 735 -1.595622 0.543690 1.735 
585 735 -2.545001 0.759974 1.085 
595 735 -2.400781 1.311234 3.351 
605 735 -2.183454 1.584382 3.837 
615 735 -2.209036 1.510295 1.980 
625 735 -2.396199 0.844995 1.439 
635 735 -3.003111 0.368397 2.245 
645 735 -2.843103 0.660575 2.443 
655 735 -2.396707 0.660598 2.582 
665 735 -2.248762 1.067090 2.642 
675 735 -2.147165 1.603031 1.330 
685 735 -2.847575 1.703935 1.912 
695 735 -3.073511 1.598057 2.341 
705 735 -3.291993 1.874791 2.220 
715 735 -3.133414 2.350274 2.527 
725 735 -3.072039 2.369964 3.442 
735 735 -2.963390 2.052393 2.061 
745 735 -3.116742 1.752014 1.830 
755 735 -3.314809 1.563517 1.824 
765 735 -3.250590 1.818917 3.921 
775 735 -2.981179 1.858762 2.913 
785 735 -2.730713 2.054819 1.883 
795 735 -2.417006 2.544621 2.763 
805 735 -2.602080 2.506735 4.160 
815 735 -2.782041 2.285112 4.456 
825 735 -2.837069 2.210289 4.444 
835 735 -2.948603 2.194957 1.966 
845 735 -3.166750 2.281822 1.116 
855 735 -3.287506 2.347213 1.236 
865 735 -3.498115 2.371441 1.201 
875 735 -3.600360 2.125613 2.283 
885 735 -3.327239 1.591144 1.534 
895 735 -3.313807 1.275002 1.572 
905 735 -3.585379 1.608925 1.305 
915 735 -3.295376 1.679956 1.391 
925 735 -2.320263 1.616549 2.120 
935 735 -2.352133 1.213342 2.633 
945 735 -2.782913 0.963577 2.177 
955 735 -2.459104 1.005594 2.308 
965 735 -2.727086 0.651474 1.925 
975 735 -3.052921 0.790063 1.934 
985 735 -3.061272 0.896243 1.460 
995 735 -3.357799 1.129719 1.515 