TITLE = "B00365"
VARIABLES = "x", "y", "u", "v", "sn"
ZONE T="Frame 0", I=128, J=80
5 795 0.000000 -0.000000 1.155 
15 795 -4.933706 1.767256 1.155 
25 795 -0.071773 -1.808036 1.091 
35 795 2.984707 -1.436837 1.395 
45 795 4.444790 0.166919 1.318 
55 795 3.288169 1.738184 1.709 
65 795 2.131549 3.309449 1.029 
75 795 -1.274001 4.743204 1.048 
85 795 -0.286321 6.844398 1.113 
95 795 1.501606 8.350350 1.214 
105 795 0.661334 8.298682 1.263 
115 795 -0.032796 8.490770 1.259 
125 795 -2.830679 6.504041 1.048 
135 795 -3.906631 3.270388 1.202 
145 795 -4.982583 0.036736 1.282 
155 795 -6.058536 -3.196916 1.119 
165 795 -7.134488 -6.430568 1.112 
175 795 -7.276085 -3.872779 1.447 
185 795 -7.417682 -1.314989 1.237 
195 795 -7.209685 -1.453429 1.154 
205 795 -7.942347 -1.303448 2.315 
215 795 -8.139763 -1.224704 1.660 
225 795 -8.326684 -1.377484 1.583 
235 795 -8.641030 -1.515374 3.101 
245 795 -8.532316 -1.576187 1.273 
255 795 -6.068718 -2.158581 1.701 
265 795 -6.583414 -2.213336 1.364 
275 795 -7.098110 -2.268090 1.277 
285 795 -7.612806 -2.322845 1.747 
295 795 -8.992785 -2.280934 2.348 
305 795 -8.912687 -2.306705 6.181 
315 795 -8.912977 -1.756617 7.571 
325 795 -8.913267 -1.206529 1.053 
335 795 -8.661491 -1.252714 2.053 
345 795 -8.409715 -1.298899 2.610 
355 795 -8.157939 -1.345085 1.191 
365 795 -7.906163 -1.391270 1.254 
375 795 -7.593891 -1.791158 2.854 
385 795 -7.981817 -1.970456 1.782 
395 795 -7.416940 -1.797265 1.389 
405 795 -6.852063 -1.624074 2.065 
415 795 -6.287186 -1.450883 2.757 
425 795 -5.680808 -1.279521 2.523 
435 795 -5.696350 -1.672781 2.501 
445 795 -5.387340 -1.651765 1.675 
455 795 -5.078330 -1.630749 1.548 
465 795 -4.880869 -1.133694 1.079 
475 795 -4.683408 -0.636639 1.165 
485 795 -4.485946 -0.139584 1.084 
495 795 -4.123952 -0.992507 1.449 
505 795 -4.175482 -2.684043 2.681 
515 795 -3.506913 -9.933221 1.056 
525 795 -3.198537 -10.738615 1.292 
535 795 -4.427061 -2.957347 1.045 
545 795 -4.237528 -1.664972 1.668 
555 795 -4.201571 -1.277588 1.875 
565 795 -3.880737 -1.291807 1.552 
575 795 -3.920504 -1.735973 1.269 
585 795 -4.360505 -1.677952 1.003 
595 795 -4.800505 -1.619932 2.244 
605 795 -4.035452 -1.138336 1.294 
615 795 -3.229223 -0.548819 1.228 
625 795 -3.107115 -0.129955 1.304 
635 795 -3.212449 0.127326 2.710 
645 795 -3.325262 0.792796 1.888 
655 795 -3.214229 1.347696 1.814 
665 795 -2.671320 1.456595 1.802 
675 795 -2.920596 0.900461 1.958 
685 795 -3.547973 0.179109 2.103 
695 795 -4.102377 -0.436758 3.234 
705 795 -4.353325 -0.806508 4.617 
715 795 -4.569911 -0.964988 1.055 
725 795 -4.481231 -0.706210 1.215 
735 795 -4.130990 0.212093 1.095 
745 795 -3.799007 1.241496 5.805 
755 795 -4.017657 1.708388 5.768 
765 795 -3.697532 0.344563 2.015 
775 795 -3.502787 0.308464 2.392 
785 795 -3.762480 0.316570 2.408 
795 795 -4.022172 0.324676 2.305 
805 795 -5.068678 -0.739958 2.504 
815 795 -5.737002 -0.517899 1.916 
825 795 -5.736351 0.058496 1.440 
835 795 -5.535672 0.847799 2.067 
845 795 -5.518715 0.887059 2.233 
855 795 -5.501759 0.926320 1.029 
865 795 -5.484803 0.965580 2.122 
875 795 -5.267521 0.664447 1.477 
885 795 -5.333118 -0.485924 1.374 
895 795 -1.457132 3.943871 1.354 
905 795 3.450930 10.304130 1.958 
915 795 3.699018 10.624984 2.080 
925 795 -2.920015 0.745397 1.086 
935 795 -3.829481 -0.818633 1.406 
945 795 -4.653991 -1.840314 1.966 
955 795 -5.160989 -1.954899 1.836 
965 795 -5.457375 -1.156114 1.449 
975 795 -5.209639 -1.142961 1.257 
985 795 -4.854548 -1.403036 1.471 
995 795 -6.021652 -1.941947 1.106 
1005 795 -7.047744 -2.422307 2.670 
1015 795 -6.432376 -2.917363 2.224 
1025 795 -7.429887 -7.046277 1.464 
1035 795 -8.427398 -11.175190 2.093 
1045 795 -7.324448 -7.751039 1.352 
1055 795 -6.221499 -4.326887 1.821 
1065 795 -5.118549 -0.902735 3.524 
1075 795 -3.288479 1.048757 3.685 
1085 795 -1.614401 1.767189 1.935 
1095 795 -1.052223 1.401591 1.068 
1105 795 -0.968750 0.963328 1.008 
1115 795 -0.885278 0.525064 1.039 
1125 795 -0.801806 0.086800 1.505 
1135 795 -0.718334 -0.351464 1.738 
1145 795 0.285550 -0.385266 1.013 
1155 795 1.289435 -0.419069 1.245 
1165 795 0.100525 -11.842648 1.084 
1175 795 0.626950 -10.499440 1.219 
1185 795 1.153375 -9.156231 1.133 
1195 795 0.517688 -9.348648 1.066 
1205 795 6.797244 -6.165049 1.050 
1215 795 13.076801 -2.981450 1.201 
1225 795 10.421465 2.222393 1.955 
1235 795 4.621246 7.857974 1.051 
1245 795 -1.915456 13.305685 1.172 
1255 795 -1.081245 11.259097 1.041 
1265 795 -0.247034 9.212508 1.421 
1275 795 0.000000 -0.000000 1.348 
5 785 -6.166150 2.132187 1.155 
15 785 -5.814714 1.676776 1.155 
25 785 -0.244487 -0.678206 1.091 
35 785 3.088525 -0.658334 1.395 
45 785 3.658294 0.288389 1.318 
55 785 4.278318 1.944325 1.709 
65 785 1.268671 3.535796 1.029 
75 785 0.377291 5.296293 1.048 
85 785 -0.514088 7.056790 1.113 
95 785 0.932088 8.734548 1.214 
105 785 0.334795 8.241678 1.263 
115 785 -1.374833 6.658503 1.259 
125 785 -4.260015 3.974711 1.048 
135 785 -4.645054 -0.783283 1.202 
145 785 -6.023520 -4.496234 1.282 
155 785 -7.401987 -8.209186 1.119 
165 785 -7.301648 -4.905762 1.112 
175 785 -7.393158 -1.090092 1.447 
185 785 -7.314239 -1.194698 1.237 
195 785 -7.235320 -1.299304 1.154 
205 785 -7.979035 -1.319775 2.315 
215 785 -8.213144 -1.208675 1.660 
225 785 -8.447413 -1.425771 1.583 
235 785 -8.710101 -1.641339 3.101 
245 785 -8.945549 -1.543903 1.273 
255 785 -7.660154 -1.782581 1.701 
265 785 -4.422944 -2.302803 1.364 
275 785 -6.649720 -2.138381 1.277 
285 785 -8.876497 -1.973959 1.747 
295 785 -8.913058 -2.037232 2.348 
305 785 -8.949618 -2.100505 6.181 
315 785 -8.697707 -1.612918 7.571 
325 785 -8.445795 -1.125330 1.053 
335 785 -8.221888 0.215298 2.053 
345 785 -7.997981 1.555927 2.610 
355 785 -7.708883 -0.023044 1.191 
365 785 -7.419786 -1.602015 1.254 
375 785 -7.341811 -1.734164 2.854 
385 785 -7.798335 -1.428526 1.782 
395 785 -7.473524 -1.514571 1.389 
405 785 -6.818733 -1.586082 2.065 
415 785 -6.145434 -0.957667 2.757 
425 785 -5.596813 -0.879735 2.523 
435 785 -5.542560 -1.257667 2.501 
445 785 -5.377902 -1.677616 1.675 
455 785 -4.818031 -1.299696 1.548 
465 785 -4.649532 -0.149435 1.079 
475 785 -4.443561 -0.131309 1.165 
485 785 -4.237589 -0.113183 1.084 
495 785 -3.846356 -0.936583 1.449 
505 785 -3.858592 -2.449040 2.681 
515 785 -3.623527 -6.115459 1.056 
525 785 -3.914087 -3.883912 1.292 
535 785 -4.204648 -1.652365 1.045 
545 785 -4.055196 -0.569263 1.668 
555 785 -4.013572 -0.507804 1.875 
565 785 -3.773610 -0.777870 1.552 
575 785 -3.951668 -1.500141 1.269 
585 785 -5.088907 -1.736630 1.003 
595 785 -5.059971 -1.339383 2.244 
605 785 -4.238554 -0.927105 1.294 
615 785 -3.337516 -0.388868 1.228 
625 785 -3.149271 -0.019275 1.304 
635 785 -3.098567 0.093534 2.710 
645 785 -3.181442 0.689817 1.888 
655 785 -3.041624 1.222475 1.814 
665 785 -2.533807 1.266353 1.802 
675 785 -2.766146 0.740672 1.958 
685 785 -3.286641 0.126274 2.103 
695 785 -3.893722 -0.392861 3.234 
705 785 -4.203272 -0.800701 4.617 
715 785 -4.667456 -1.235208 1.055 
725 785 -4.789789 -1.068864 1.215 
735 785 -4.104717 0.187174 1.095 
745 785 -3.727001 1.433443 5.805 
755 785 -3.958571 1.674926 5.768 
765 785 -3.649120 0.574210 2.015 
775 785 -3.450777 0.231897 2.392 
785 785 -3.639731 0.391802 2.408 
795 785 -4.216926 -0.113637 2.305 
805 785 -5.252845 -1.305717 2.504 
815 785 -5.705019 -1.212104 1.916 
825 785 -5.645676 -0.723767 1.440 
835 785 -5.447937 -0.024319 2.067 
845 785 -5.442771 0.803232 2.233 
855 785 -5.477890 0.844596 1.029 
865 785 -5.475280 0.783343 2.122 
875 785 -5.451319 0.745063 1.477 
885 785 -5.199508 0.203403 1.374 
895 785 -1.901342 4.082030 1.354 
905 785 2.459724 9.476270 1.958 
915 785 2.884481 9.546368 2.080 
925 785 -1.548321 2.253160 1.086 
935 785 -3.875255 -0.994716 1.406 
945 785 -4.750052 -2.064879 1.966 
955 785 -5.036082 -2.188229 1.836 
965 785 -5.221272 -1.359254 1.449 
975 785 -5.031574 -1.229200 1.257 
985 785 -4.699496 -1.361286 1.471 
995 785 -5.712942 -1.937212 1.106 
1005 785 -6.435637 -2.455425 2.670 
1015 785 -6.732081 -3.047728 2.224 
1025 785 -7.299065 -4.317113 1.464 
1035 785 -7.866049 -5.586497 2.093 
1045 785 -5.643171 -1.357997 1.352 
1055 785 -5.662165 -1.106962 1.821 
1065 785 -4.612997 0.339015 3.524 
1075 785 -2.864454 2.205200 3.685 
1085 785 -1.820234 2.714565 1.935 
1095 785 -1.261289 1.945527 1.068 
1105 785 -0.780348 2.320225 1.008 
1115 785 -0.696876 1.881961 1.039 
1125 785 -0.613404 1.443697 1.505 
1135 785 0.262770 -0.348997 1.738 
1145 785 1.184296 -0.139735 1.013 
1155 785 2.084576 0.220581 1.245 
1165 785 0.615848 -11.967897 1.084 
1175 785 -0.158456 -14.012701 1.219 
1185 785 0.489094 -8.481380 1.133 
1195 785 1.030213 -8.129496 1.066 
1205 785 0.664906 -6.635257 1.050 
1215 785 12.722794 -3.827042 1.201 
1225 785 9.308804 3.038287 1.955 
1235 785 4.452159 7.309512 1.051 
1245 785 0.568785 9.021825 1.172 
1255 785 1.577024 10.470639 1.041 
1265 785 -0.184634 8.217287 1.421 
1275 785 0.303468 3.502972 1.348 
5 775 -5.997154 2.818544 1.202 
15 775 -1.776369 0.582935 1.202 
25 775 -0.273010 0.340971 1.607 
35 775 2.493106 -0.111033 1.365 
45 775 2.871799 0.409858 1.060 
55 775 2.836650 2.411020 1.524 
65 775 1.132005 2.635122 1.202 
75 775 1.329667 4.837648 1.141 
85 775 1.527329 7.040174 1.008 
95 775 0.083094 8.468383 1.705 
105 775 -0.149142 6.707492 2.393 
115 775 -1.371300 4.422830 2.051 
125 775 -1.494295 -2.056627 1.030 
135 775 -3.198190 -8.180265 1.097 
145 775 -6.459429 -8.070606 1.066 
155 775 -7.845597 -5.265593 4.149 
165 775 -7.439020 -2.989975 1.944 
175 775 -7.588154 -0.208594 2.072 
185 775 -7.613697 -0.991772 1.334 
195 775 -7.639240 -1.774950 1.019 
205 775 -8.225686 -1.793138 1.853 
215 775 -8.866141 -1.598053 1.463 
225 775 -8.998107 -1.650188 1.391 
235 775 -8.884992 -1.827161 1.619 
245 775 -8.981435 -1.705964 2.243 
255 775 -8.812991 -1.493182 1.813 
265 775 -7.813324 -1.524087 1.150 
275 775 -8.303918 -1.624641 1.116 
285 775 -8.962874 -1.756742 1.076 
295 775 -8.937858 -1.521053 1.218 
305 775 -8.912842 -1.285365 3.555 
315 775 -9.220407 -1.303358 1.799 
325 775 -8.214555 -1.341795 3.145 
335 775 -7.394638 -1.112856 1.709 
345 775 -6.574722 -0.883916 1.167 
355 775 -7.232739 -1.803951 1.338 
365 775 -7.146845 -2.119305 1.310 
375 775 -7.135214 -1.696392 1.584 
385 775 -7.385114 -0.598457 2.275 
395 775 -7.036806 -0.384172 1.541 
405 775 -6.442211 -0.371420 1.886 
415 775 -5.801184 0.239387 1.311 
425 775 -5.409901 0.204095 2.074 
435 775 -4.836459 -0.210364 2.029 
445 775 -4.497314 -0.731973 4.525 
455 775 -4.345610 -0.706978 1.870 
465 775 -4.232598 0.333403 1.625 
475 775 -4.220735 1.331879 1.173 
485 775 -3.963505 0.922216 1.038 
495 775 -3.693653 -0.993463 1.443 
505 775 -3.573709 -2.003838 1.509 
515 775 -3.713449 -2.371475 2.416 
525 775 -3.713258 -1.579317 1.101 
535 775 -3.713067 -0.787158 1.006 
545 775 -3.305010 -0.790751 1.419 
555 775 -3.682196 -0.182259 4.479 
565 775 -3.577406 -0.500555 3.383 
575 775 -4.086523 -1.128782 1.157 
585 775 -5.323220 -1.041324 1.095 
595 775 -5.051652 -1.065716 2.714 
605 775 -4.162215 -0.836495 1.171 
615 775 -3.034745 -0.544465 1.054 
625 775 -2.761924 -0.168180 1.222 
635 775 -2.845530 0.176234 2.318 
645 775 -3.006181 0.577509 2.570 
655 775 -2.775816 0.810584 1.008 
665 775 -2.302527 0.616092 2.513 
675 775 -2.642035 0.173172 5.904 
685 775 -3.078818 -0.362394 3.274 
695 775 -3.701083 -0.614504 6.850 
705 775 -3.878700 -0.850636 9.505 
715 775 -3.909524 -1.208617 1.546 
725 775 -3.710320 -1.024437 1.468 
735 775 -3.104498 -0.091848 1.726 
745 775 -3.586897 1.331292 2.620 
755 775 -3.899485 1.641465 24.800 
765 775 -3.667755 0.382429 1.821 
775 775 -3.288108 0.082610 4.806 
785 775 -3.877391 -0.322982 6.726 
795 775 -4.296745 -0.948055 16.050 
805 775 -4.702252 -1.954750 1.849 
815 775 -5.325069 -2.117221 2.207 
825 775 -5.409656 -2.074027 1.772 
835 775 -4.454834 -2.075919 1.211 
845 775 -4.676245 -1.410737 1.253 
855 775 -5.080405 -0.222170 1.359 
865 775 -4.896332 0.763211 2.102 
875 775 -5.004943 0.727979 2.105 
885 775 -5.113553 0.692746 1.181 
895 775 -2.336235 3.771581 1.030 
905 775 -0.213407 5.209557 2.062 
915 775 1.060386 5.963593 1.778 
925 775 -1.420180 2.802372 1.012 
935 775 -4.703287 -1.150659 1.471 
945 775 -5.020349 -2.072601 1.539 
955 775 -4.800383 -2.600670 1.210 
965 775 -4.667044 -1.571215 1.640 
975 775 -4.689942 -1.204680 9.101 
985 775 -4.258713 -1.228474 7.161 
995 775 -5.008483 -1.785673 1.052 
1005 775 -5.823530 -2.488543 1.372 
1015 775 -6.089877 -1.926598 1.381 
1025 775 -6.527205 0.173548 1.089 
1035 775 -6.487013 1.110080 1.272 
1045 775 -5.902616 0.524422 3.473 
1055 775 -4.867927 0.535630 1.066 
1065 775 -3.865665 1.898502 1.109 
1075 775 -2.403625 3.616444 1.243 
1085 775 -2.277495 3.903107 2.100 
1095 775 -2.240539 2.799290 1.420 
1105 775 -2.020185 1.256239 1.109 
1115 775 -0.508473 3.238858 1.036 
1125 775 0.129037 5.824599 1.337 
1135 775 1.552213 5.561436 1.048 
1145 775 1.966779 2.987865 1.062 
1155 775 1.956429 0.140174 1.027 
1165 775 -0.577206 5.016379 1.590 
1175 775 -1.084080 -5.550297 1.068 
1185 775 -0.680109 -6.195290 2.627 
1195 775 1.542738 -6.910344 1.040 
1205 775 1.058770 -5.475058 1.033 
1215 775 11.107061 -1.973635 1.298 
1225 775 10.740600 -0.226727 1.135 
1235 775 7.565951 2.381527 1.089 
1245 775 3.053026 4.737965 1.288 
1255 775 1.613304 7.029642 1.575 
1265 775 0.332729 6.186581 1.036 
1275 775 0.023526 1.517246 1.064 
5 765 -5.828158 3.504900 1.277 
15 765 -4.673689 3.416590 1.277 
25 765 0.704708 -0.182975 1.263 
35 765 0.654649 0.437683 1.314 
45 765 1.823023 0.855051 1.400 
55 765 1.394981 2.877715 1.544 
65 765 1.137694 1.696404 1.346 
75 765 1.172866 0.685106 1.134 
85 765 1.954164 3.801366 1.144 
95 765 1.315735 7.125513 1.634 
105 765 0.558442 5.622163 1.606 
115 765 1.608026 -0.501944 1.432 
125 765 1.271425 -8.087964 1.095 
135 765 -0.839533 -8.993252 1.511 
145 765 -8.313335 -3.687037 1.213 
155 765 -7.330692 -3.533530 20.000 
165 765 -7.773894 -1.938059 2.824 
175 765 -8.065486 -0.796413 1.132 
185 765 -8.221168 -1.197478 1.657 
195 765 -7.870294 -2.203406 1.368 
205 765 -8.169558 -1.851087 1.096 
215 765 -8.868064 -1.545411 1.092 
225 765 -9.215121 -1.707304 3.525 
235 765 -8.996420 -1.825144 1.074 
245 765 -9.017321 -1.868025 1.801 
255 765 -8.965609 -1.353105 2.191 
265 765 -8.568419 -0.948291 1.323 
275 765 -8.423571 -1.331073 1.840 
285 765 -8.220339 -1.570075 1.172 
295 765 -8.601952 -1.154993 1.037 
305 765 -8.682009 -0.697624 1.540 
315 765 -8.646466 -0.908936 6.055 
325 765 -8.026466 -0.972267 1.554 
335 765 -6.413871 -1.307844 1.022 
345 765 -7.727870 -2.304659 1.021 
355 765 -7.597173 -2.599323 2.134 
365 765 -7.642907 -2.509043 1.058 
375 765 -7.304652 -1.155353 1.160 
385 765 -7.176235 0.268990 1.361 
395 765 -6.703997 0.947854 1.381 
405 765 -6.274976 0.666453 1.219 
415 765 -5.799363 0.927519 1.014 
425 765 -5.153557 0.977259 1.475 
435 765 -4.658586 0.407618 1.040 
445 765 -4.170232 -0.051833 1.167 
455 765 -3.946207 -0.212507 1.514 
465 765 -3.968373 1.630990 1.148 
475 765 -3.990539 3.474488 1.822 
485 765 -3.760580 1.991387 1.115 
495 765 -3.378467 -0.836736 1.128 
505 765 -3.552328 -1.551459 1.016 
515 765 -3.424294 -2.065811 1.638 
525 765 -3.124636 -2.485460 1.196 
535 765 -3.233038 0.127761 1.554 
545 765 -2.783643 -0.214858 1.083 
555 765 -3.210532 -0.068007 3.517 
565 765 -3.246646 -0.313786 2.930 
575 765 -3.885089 -0.654353 2.584 
585 765 -4.577058 -0.664416 1.901 
595 765 -5.043333 -0.792048 2.383 
605 765 -3.080785 -1.040381 1.136 
615 765 -2.499029 -0.744787 1.127 
625 765 -2.333566 -0.394296 2.335 
635 765 -2.673425 -0.089831 4.406 
645 765 -2.915530 0.299238 2.846 
655 765 -3.188553 0.290428 1.020 
665 765 -2.578496 0.415945 2.222 
675 765 -2.642608 -0.335834 1.979 
685 765 -2.804546 -0.356427 2.336 
695 765 -3.497732 -0.508501 1.314 
705 765 -3.790751 -0.777247 1.421 
715 765 -3.266165 -0.723616 4.373 
725 765 -2.961971 -0.525864 3.220 
735 765 -2.888638 0.162744 1.411 
745 765 -3.531074 1.183860 1.042 
755 765 -3.273662 1.276933 35.756 
765 765 -3.069602 0.503431 5.390 
775 765 -3.089431 -0.042007 1.402 
785 765 -3.482920 -0.497983 2.930 
795 765 -3.856271 -1.277063 2.888 
805 765 -3.970451 -2.171319 1.604 
815 765 -4.196991 -2.874411 1.699 
825 765 -4.258553 -2.703437 1.087 
835 765 -4.226453 -3.057817 1.163 
845 765 -4.323421 -2.753269 1.515 
855 765 -4.682920 -1.288935 1.895 
865 765 -4.962988 0.453208 1.415 
875 765 -4.827648 0.968817 2.064 
885 765 -4.692308 1.484426 1.223 
895 765 -2.503835 3.090782 1.154 
905 765 -1.633772 2.735800 1.971 
915 765 -0.763710 2.380819 1.469 
925 765 -3.974329 0.745762 1.801 
935 765 -5.687341 -1.350079 2.466 
945 765 -5.465943 -2.009481 3.388 
955 765 -4.944051 -2.404286 2.258 
965 765 -4.150392 -1.774728 1.428 
975 765 -4.348309 -1.180160 3.505 
985 765 -4.088598 -1.196472 5.906 
995 765 -3.902764 -1.637875 1.363 
1005 765 -4.328181 -2.026390 1.285 
1015 765 -4.779626 -0.580542 1.200 
1025 765 -5.460445 1.117055 2.331 
1035 765 -5.748910 2.574485 2.170 
1045 765 -5.539054 2.817723 1.910 
1055 765 -4.849780 2.300855 1.614 
1065 765 -4.081612 2.984995 1.839 
1075 765 -2.755389 4.657119 1.836 
1085 765 -2.734755 5.091648 1.268 
1095 765 -3.896689 4.072650 2.506 
1105 765 -3.500782 5.016753 1.638 
1115 765 -1.534102 3.986995 1.016 
1125 765 -0.277993 5.330659 1.303 
1135 765 0.214872 6.212735 1.155 
1145 765 1.698684 3.340077 1.053 
1155 765 1.404818 1.743058 1.276 
1165 765 -0.462338 3.679692 1.292 
1175 765 -0.900920 -2.662661 1.098 
1185 765 -0.531581 -0.546222 1.545 
1195 765 0.642698 -1.057013 1.003 
1205 765 2.057064 -2.240610 1.080 
1215 765 8.043326 -1.435849 1.842 
1225 765 7.929237 -0.459128 1.018 
1235 765 4.051905 1.861017 1.285 
1245 765 2.757097 4.347011 1.681 
1255 765 0.564987 5.079159 1.549 
1265 765 -0.508542 -0.642210 1.025 
1275 765 -0.591615 -0.533575 1.095 
5 755 -5.659161 4.191256 1.110 
15 755 -4.059719 3.033871 1.110 
25 755 -0.728662 1.591131 1.083 
35 755 -0.249436 2.871291 1.205 
45 755 -0.073803 4.785331 1.071 
55 755 1.512697 4.282741 1.306 
65 755 0.874539 1.661990 2.048 
75 755 1.812722 -1.285308 1.066 
85 755 1.846114 0.444241 1.095 
95 755 1.396916 5.333596 1.443 
105 755 0.965120 4.986952 1.789 
115 755 1.153292 1.789075 1.301 
125 755 1.514352 -4.438615 1.049 
135 755 -0.569177 -5.303074 1.029 
145 755 -6.205519 -4.007820 1.023 
155 755 -6.569352 -3.651606 1.341 
165 755 -8.191048 -2.123597 1.912 
175 755 -8.542817 -1.384232 1.543 
185 755 -8.014803 -1.000525 2.766 
195 755 -7.061575 -0.705496 2.951 
205 755 -7.124401 -0.898866 1.356 
215 755 -7.844655 -1.202281 1.082 
225 755 -8.168198 -1.420101 2.237 
235 755 -8.182856 -1.982409 3.530 
245 755 -8.239990 -0.881147 1.766 
255 755 -8.622177 -0.777580 1.862 
265 755 -8.910306 -0.605644 1.598 
275 755 -8.559226 -0.618559 2.194 
285 755 -7.859355 -0.913183 1.201 
295 755 -7.575530 -1.139699 1.136 
305 755 -7.524557 -0.577618 2.440 
315 755 -7.400219 -0.918729 1.619 
325 755 -7.086831 -0.946312 1.764 
335 755 -7.145488 -1.716938 2.328 
345 755 -7.845749 -2.754677 2.514 
355 755 -7.976063 -2.610734 1.558 
365 755 -7.733905 -1.877540 1.249 
375 755 -7.422479 -0.583899 1.322 
385 755 -6.988094 0.882263 1.243 
395 755 -6.634135 1.415052 1.545 
405 755 -6.204372 1.304839 1.520 
415 755 -5.886855 1.241368 1.017 
425 755 -5.074870 1.335667 1.105 
435 755 -4.676256 0.672477 1.011 
445 755 -4.605000 -0.145961 1.519 
455 755 -4.135778 -0.202942 1.120 
465 755 -4.059073 2.660793 1.001 
475 755 -3.982368 5.524529 1.004 
485 755 -4.164326 0.393012 1.229 
495 755 -3.459946 -0.856870 1.007 
505 755 -3.530946 -1.099080 1.040 
515 755 -3.636587 -0.819995 1.704 
525 755 -3.374497 0.010495 1.309 
535 755 -2.910255 0.105228 4.058 
545 755 -2.446012 0.199960 2.016 
555 755 -2.730319 0.404634 4.997 
565 755 -3.209932 0.136035 6.976 
575 755 -3.039574 -0.004373 3.288 
585 755 -3.830897 -0.287508 1.509 
595 755 -3.808799 -0.427240 1.859 
605 755 -3.520445 -0.866804 1.621 
615 755 -2.740328 -0.591422 6.128 
625 755 -2.315038 -0.407022 5.131 
635 755 -2.438678 -0.255747 28.105 
645 755 -2.670308 -0.037225 9.104 
655 755 -2.853229 0.346327 1.348 
665 755 -2.854465 0.215799 1.854 
675 755 -2.957506 -0.070997 3.338 
685 755 -2.799012 -0.162517 20.000 
695 755 -3.171697 -0.125140 160.966 
705 755 -3.358410 -0.179535 1.223 
715 755 -2.899049 -0.394897 5.269 
725 755 -2.595996 -0.280549 2.311 
735 755 -2.659533 0.064517 1.037 
745 755 -3.124146 0.933890 1.276 
755 755 -2.303558 0.758647 4.680 
765 755 -1.861288 0.271480 3.060 
775 755 -2.603106 -0.377961 2.834 
785 755 -3.006701 -0.423877 2.369 
795 755 -3.577308 -0.948818 2.460 
805 755 -3.196767 -1.754777 1.556 
815 755 -3.402968 -2.868124 1.405 
825 755 -4.113519 -2.831176 1.170 
835 755 -4.020949 -3.692474 1.029 
845 755 -4.117267 -3.501358 1.854 
855 755 -4.671327 -1.433215 2.272 
865 755 -5.201381 0.803593 2.738 
875 755 -5.160941 2.101468 1.835 
885 755 -5.207721 1.976237 1.816 
895 755 -2.283139 2.283381 1.079 
905 755 -1.624856 1.921162 1.235 
915 755 -2.315568 1.247081 1.025 
925 755 -4.735331 0.240942 1.446 
935 755 -6.023933 -1.174730 5.884 
945 755 -5.844511 -1.630429 6.945 
955 755 -5.074948 -2.255781 3.183 
965 755 -4.177749 -2.115574 1.193 
975 755 -4.176865 -1.483723 1.521 
985 755 -3.727021 -1.235028 1.015 
995 755 -3.522988 -0.944219 1.223 
1005 755 -2.842840 -1.442791 1.573 
1015 755 -2.293254 -0.831283 2.239 
1025 755 -3.368928 1.283555 2.744 
1035 755 -4.723401 2.742124 1.719 
1045 755 -5.075481 2.644414 2.598 
1055 755 -5.131523 2.908550 1.513 
1065 755 -4.709578 4.169710 1.835 
1075 755 -3.896030 4.815618 2.186 
1085 755 -3.748668 4.859801 1.167 
1095 755 -4.464156 4.543203 1.104 
1105 755 -4.345284 4.834474 1.128 
1115 755 -2.559730 4.735133 1.001 
1125 755 -0.685023 4.836718 2.152 
1135 755 -0.152129 5.240756 1.154 
1145 755 0.766555 3.458201 1.122 
1155 755 0.853208 3.345941 2.028 
1165 755 -1.046519 4.029534 1.156 
1175 755 -0.717761 0.224976 1.305 
1185 755 0.644718 -2.192249 1.605 
1195 755 1.857062 -1.306610 1.186 
1205 755 2.625706 -0.008523 1.320 
1215 755 4.326880 -1.198417 1.147 
1225 755 4.463564 -0.289329 1.168 
1235 755 7.752789 -1.177940 1.035 
1245 755 7.403791 3.693283 1.033 
1255 755 3.204841 2.276154 1.407 
1265 755 -1.597179 -1.236066 1.548 
1275 755 -1.750950 0.162438 1.346 
5 745 -5.490165 4.877613 1.380 
15 745 -3.299104 3.142679 1.380 
25 745 -2.162032 3.365237 1.186 
35 745 -1.153521 5.304899 1.211 
45 745 0.372025 5.355650 1.109 
55 745 0.491704 3.491612 1.369 
65 745 0.611383 1.627575 1.219 
75 745 1.094660 -1.324640 1.015 
85 745 1.738063 -2.912884 1.150 
95 745 1.171761 1.703158 1.403 
105 745 0.287019 5.058868 1.159 
115 745 0.698559 4.080094 1.111 
125 745 0.617153 0.907177 1.515 
135 745 -0.298821 -1.612895 1.315 
145 745 -4.806604 -4.189889 1.022 
155 745 -6.268868 -3.755103 1.177 
165 745 -7.706046 -2.060644 1.140 
175 745 -7.961718 -1.215164 1.560 
185 745 -7.736189 -0.494052 1.314 
195 745 -6.170559 -0.694321 1.005 
205 745 -5.339396 -0.582379 1.565 
215 745 -6.420967 -0.785775 1.050 
225 745 -7.246222 -1.176043 1.796 
235 745 -7.764225 -0.888915 1.271 
245 745 -8.188666 -0.463872 2.446 
255 745 -8.486412 -0.339492 1.860 
265 745 -8.744753 -0.558938 1.374 
275 745 -8.732896 -0.270578 1.638 
285 745 -7.704978 -0.199132 1.255 
295 745 -7.294896 -0.321016 1.545 
305 745 -6.456573 -0.833337 1.232 
315 745 -6.153972 -0.928521 1.937 
325 745 -6.392198 -1.204389 1.920 
335 745 -7.719486 -1.458235 1.898 
345 745 -8.864631 0.076250 1.373 
355 745 -8.099097 -0.910680 1.032 
365 745 -7.241367 -0.972083 1.190 
375 745 -7.018131 0.088020 1.148 
385 745 -6.765087 1.211140 1.243 
395 745 -6.554861 1.448009 1.224 
405 745 -6.466424 1.315032 10.303 
415 745 -5.946610 1.343104 8.669 
425 745 -5.045315 1.576231 1.892 
435 745 -4.780740 0.682389 1.315 
445 745 -4.719200 -0.338181 3.174 
455 745 -4.674508 -0.265929 1.175 
465 745 -5.222080 -0.732874 1.248 
475 745 -5.769652 -1.199820 1.025 
485 745 -4.568072 -1.205363 1.056 
495 745 -3.444945 -1.365307 2.623 
505 745 -3.768773 -1.263856 8.922 
515 745 -4.054925 -0.674586 2.817 
525 745 -3.573251 0.120701 1.224 
535 745 -3.076574 0.272951 1.073 
545 745 -2.579896 0.425201 1.415 
555 745 -3.180445 0.607635 2.768 
565 745 -3.173217 0.585856 2.295 
575 745 -3.509712 0.243706 2.049 
585 745 -3.645232 0.001290 1.577 
595 745 -3.462781 -0.628551 1.757 
605 745 -3.517712 -0.788422 1.392 
615 745 -2.776487 -0.407811 2.068 
625 745 -2.306379 -0.269573 9.096 
635 745 -2.348844 -0.296348 3.625 
645 745 -2.574545 -0.224878 16.825 
655 745 -2.672585 -0.042192 1.711 
665 745 -2.746985 0.025807 1.445 
675 745 -2.858112 0.048033 1.319 
685 745 -2.793477 0.031393 1.038 
695 745 -2.845662 0.258221 1.038 
705 745 -2.792571 0.433993 1.232 
715 745 -2.395584 0.097335 2.013 
725 745 -2.181104 0.057864 1.671 
735 745 -2.173947 0.316231 1.293 
745 745 -2.555736 0.938423 1.915 
755 745 -1.215518 0.460984 2.132 
765 745 -1.538239 -0.074101 1.501 
775 745 -2.278183 -0.545953 2.416 
785 745 -3.495198 -0.596289 2.087 
795 745 -3.616538 -0.937283 1.240 
805 745 -3.409683 -1.590156 1.002 
815 745 -3.220119 -2.187563 1.057 
825 745 -3.889076 -2.971485 3.194 
835 745 -3.757658 -3.857494 1.599 
845 745 -3.612768 -3.273203 2.720 
855 745 -4.058994 -0.933849 2.482 
865 745 -4.657677 1.168170 2.008 
875 745 -5.288744 1.962031 3.905 
885 745 -4.933020 2.320681 1.459 
895 745 -3.814796 1.644029 1.457 
905 745 -2.696572 0.967376 1.077 
915 745 -3.457758 0.375557 1.140 
925 745 -4.912563 -0.363197 1.387 
935 745 -5.639919 -1.503961 9.209 
945 745 -5.246103 -1.799016 11.636 
955 745 -4.211481 -2.584717 3.987 
965 745 -4.195301 -2.449435 2.487 
975 745 -4.162080 -1.586474 8.118 
985 745 -3.507111 -1.168734 11.114 
995 745 -3.100775 -0.906443 4.240 
1005 745 -2.166949 0.012771 1.408 
1015 745 -1.867840 0.269273 1.920 
1025 745 -2.197407 0.971102 1.367 
1035 745 -3.440054 1.932615 3.924 
1045 745 -4.170183 2.680874 20.000 
1055 745 -4.718508 3.566310 9.768 
1065 745 -4.549409 4.401720 1.972 
1075 745 -4.174754 4.907665 1.119 
1085 745 -4.231246 4.742794 1.004 
1095 745 -4.324278 4.104345 1.289 
1105 745 -4.417310 3.465896 1.869 
1115 745 -2.254992 2.959718 1.217 
1125 745 -2.137472 4.103626 2.056 
1135 745 -0.840758 3.540175 3.686 
1145 745 -0.165575 3.576324 1.844 
1155 745 -1.010591 3.360497 1.944 
1165 745 -2.551351 1.898126 1.101 
1175 745 0.366098 -3.189594 1.332 
1185 745 0.892783 -2.225780 1.165 
1195 745 1.733441 -0.948235 1.102 
1205 745 3.038365 -0.063676 1.470 
1215 745 7.470266 1.684583 1.004 
1225 745 8.465119 -0.898655 1.184 
1235 745 10.651101 -0.886772 1.277 
1245 745 10.051504 2.068183 1.013 
1255 745 7.040257 1.451638 1.353 
1265 745 -1.053003 0.123446 1.385 
1275 745 -2.910285 0.858451 1.289 
5 735 -5.321168 5.563969 1.416 
15 735 -2.450999 2.977818 1.416 
25 735 -1.051747 3.710715 1.144 
35 735 -0.518379 5.745961 1.022 
45 735 0.262815 5.612094 1.047 
55 735 0.283142 3.223103 2.064 
65 735 0.303469 0.834112 1.678 
75 735 0.859848 -3.148265 1.131 
85 735 0.816714 -1.939576 1.263 
95 735 0.575341 0.144944 1.101 
105 735 -0.261075 4.749499 1.068 
115 735 0.042673 5.003573 1.068 
125 735 0.146979 2.469358 1.022 
135 735 -1.472749 -1.770239 1.083 
145 735 -4.130117 -4.881552 4.048 
155 735 -6.271165 -3.897224 1.200 
165 735 -7.469737 -2.290635 1.092 
175 735 -7.676891 -1.601201 1.279 
185 735 -7.884045 -0.911767 1.236 
195 735 -5.279543 -0.683145 1.520 
205 735 -5.647783 -0.811399 1.192 
215 735 -6.792572 -1.055744 1.156 
225 735 -7.602858 -0.909219 3.132 
235 735 -8.022730 -0.814536 2.213 
245 735 -8.640367 -0.732872 2.235 
255 735 -8.804713 -0.549983 5.551 
265 735 -8.610976 -0.164594 7.493 
275 735 -8.156898 0.321441 2.655 
285 735 -7.694132 0.516235 1.298 
295 735 -6.711704 0.342900 2.344 
305 735 -6.569168 -0.372523 2.008 
315 735 -5.924733 -0.833492 1.118 
325 735 -9.977766 -0.861487 1.143 
335 735 -11.504849 -0.367264 1.681 
345 735 -10.964563 0.517214 1.008 
355 735 -8.738847 0.751683 1.581 
365 735 -7.193475 0.090585 1.629 
375 735 -6.533044 0.726332 1.780 
385 735 -6.429440 1.638852 1.099 
395 735 -6.272314 1.818018 1.658 
405 735 -6.196205 0.875816 5.569 
415 735 -5.773860 0.894255 1.682 
425 735 -5.000244 1.373346 1.767 
435 735 -4.620925 0.658480 20.000 
445 735 -4.418583 -0.423891 1.913 
455 735 -4.435758 -1.486566 1.018 
465 735 -4.718132 -2.251377 1.233 
475 735 -4.931220 -0.471041 1.004 
485 735 -4.476476 -0.593474 1.090 
495 735 -4.294218 -0.656698 5.346 
505 735 -4.301719 -0.960132 3.262 
515 735 -4.246293 -0.947211 1.777 
525 735 -4.004066 -0.162731 1.293 
535 735 -3.526010 0.009744 1.045 
545 735 -3.793790 0.169136 1.157 
555 735 -4.744705 0.117315 1.920 
565 735 -4.583609 0.634252 1.413 
575 735 -4.248282 0.097002 1.725 
585 735 -3.623762 -0.061883 1.682 
595 735 -3.588187 -0.727067 1.566 
605 735 -3.439056 -0.669974 1.327 
615 735 -2.869549 -0.324230 2.327 
625 735 -2.369356 -0.203894 11.746 
635 735 -2.301844 -0.244322 1.514 
645 735 -2.509286 -0.163002 2.544 
655 735 -2.797601 -0.013722 4.231 
665 735 -2.873393 0.067064 4.778 
675 735 -2.925879 0.094117 2.513 
685 735 -2.787942 0.225304 1.180 
695 735 -2.519626 0.641583 1.751 
705 735 -1.986649 0.663901 1.993 
715 735 -1.846003 0.562366 3.093 
725 735 -1.688863 0.591338 2.363 
735 735 -1.813738 1.259576 1.677 
745 735 -1.934743 1.504845 3.830 
755 735 -1.673991 0.855748 1.688 
765 735 -1.933905 0.166371 1.205 
775 735 -2.634519 -0.252439 1.398 
785 735 -3.870606 -0.058605 2.349 
795 735 -3.963542 -0.150018 1.023 
805 735 -3.508425 -1.255552 2.224 
815 735 -3.066804 -2.400458 1.095 
825 735 -3.073033 -2.731175 5.073 
835 735 -3.073285 -3.530163 1.495 
845 735 -2.563134 -3.126512 1.442 
855 735 -3.041648 -0.835853 1.966 
865 735 -3.935471 0.914903 2.585 
875 735 -4.739466 1.383479 1.846 
885 735 -4.856203 1.758237 1.035 
895 735 -4.247029 1.163299 1.744 
905 735 -3.637855 0.568360 1.304 
915 735 -4.355787 -0.468151 1.005 
925 735 -4.919442 -1.448267 2.433 
935 735 -5.255905 -1.833191 2.575 
945 735 -4.411403 -2.277034 2.198 
955 735 -3.742829 -2.405950 2.168 
965 735 -4.631189 -1.754070 17.852 