TITLE = "B00301"
VARIABLES = "x", "y", "u", "v", "sn"
ZONE T="Frame 0", I=128, J=80
5 795 0.000000 -0.000000 1.068 
15 795 0.000000 -0.000000 1.068 
25 795 0.000000 -0.000000 1.259 
35 795 0.000000 -0.000000 1.001 
45 795 0.000000 -0.000000 1.022 
55 795 -3.556276 -6.058306 1.407 
65 795 -0.833015 -7.469459 1.182 
75 795 0.961088 -6.629735 1.375 
85 795 2.755190 -5.790010 1.099 
95 795 4.549293 -4.950286 1.432 
105 795 6.343395 -4.110562 1.435 
115 795 6.175489 -3.527168 1.688 
125 795 6.007584 -2.943774 1.549 
135 795 8.094335 0.156515 1.421 
145 795 7.178290 2.686246 1.558 
155 795 3.879083 5.347750 1.458 
165 795 0.423075 5.226228 1.382 
175 795 -3.032932 5.104705 2.034 
185 795 -4.675443 4.726638 2.174 
195 795 -5.568722 4.281587 1.973 
205 795 -5.234605 3.589293 1.764 
215 795 -4.710381 3.211394 1.240 
225 795 -4.186156 2.833494 1.987 
235 795 -4.263616 2.452063 1.959 
245 795 -4.172026 1.839328 2.593 
255 795 -3.600689 1.598698 2.029 
265 795 -3.322016 1.783928 1.333 
275 795 -3.770975 1.943238 1.221 
285 795 -4.355887 2.729276 3.694 
295 795 -4.737738 3.052157 7.747 
305 795 -4.733738 3.063166 3.915 
315 795 -4.263590 3.720883 1.064 
325 795 -4.196945 3.617161 2.221 
335 795 -4.130300 3.513439 2.607 
345 795 -4.311288 1.632202 4.017 
355 795 -4.287819 0.442236 4.236 
365 795 -4.595439 0.976257 1.872 
375 795 -5.039024 1.997284 2.250 
385 795 -5.117276 2.713899 3.019 
395 795 -5.078554 2.631383 1.412 
405 795 -5.279926 2.105126 1.629 
415 795 -5.301539 1.952940 2.508 
425 795 -4.897037 2.182538 2.356 
435 795 -4.365396 2.353885 2.566 
445 795 -3.875364 2.768929 2.507 
455 795 -2.775637 3.301985 1.678 
465 795 -2.720861 2.184830 2.787 
475 795 -2.666084 1.067675 1.131 
485 795 -2.810840 0.930019 1.400 
495 795 -2.955596 0.792362 1.338 
505 795 -2.815703 0.664758 2.554 
515 795 -2.293694 0.404207 2.010 
525 795 -2.054897 0.851841 1.252 
535 795 -1.899399 1.275021 1.283 
545 795 -1.659924 1.272013 4.665 
555 795 -1.420450 1.269005 1.703 
565 795 -2.030866 1.057419 1.081 
575 795 -2.945201 2.007830 1.120 
585 795 -2.568428 2.040471 1.536 
595 795 -2.389642 1.704909 2.973 
605 795 -2.210857 1.369348 3.339 
615 795 -2.601285 1.328627 2.487 
625 795 -2.903362 1.512594 20.000 
635 795 -3.429341 1.620530 22.144 
645 795 -4.251286 1.014116 3.819 
655 795 -5.077917 0.438167 2.328 
665 795 -5.804701 0.504581 2.207 
675 795 -6.272574 0.298443 1.391 
685 795 -6.062188 -0.229506 1.157 
695 795 -6.578557 -0.672610 2.253 
705 795 -7.571530 -0.670807 3.412 
715 795 -7.423601 -0.739198 5.109 
725 795 -6.569727 -1.185862 1.818 
735 795 -6.741430 -0.997944 1.361 
745 795 -6.887901 -0.443749 2.250 
755 795 -7.007556 -0.005221 2.090 
765 795 -7.101235 -0.316339 2.862 
775 795 -7.445582 -1.032980 2.202 
785 795 -7.210388 -1.410457 1.593 
795 795 -6.260300 -1.551849 2.062 
805 795 -6.328655 -1.640985 1.859 
815 795 -6.509913 -1.652829 1.540 
825 795 -6.715605 -1.555741 3.857 
835 795 -6.968433 -1.488802 2.061 
845 795 -6.913507 -1.435779 1.228 
855 795 -6.777152 -1.349965 1.334 
865 795 -7.043100 -1.101994 3.448 
875 795 -7.101404 -0.834205 4.279 
885 795 -7.475729 -0.404187 2.490 
895 795 -7.783608 -0.208477 3.364 
905 795 -7.931533 -0.198662 1.277 
915 795 -7.757082 0.221326 3.891 
925 795 -7.782217 0.393652 1.481 
935 795 -8.334228 0.579041 2.345 
945 795 -8.533372 4.301544 1.340 
955 795 -8.025029 4.680124 1.012 
965 795 -7.516686 5.058704 1.273 
975 795 -7.302193 -0.694553 2.685 
985 795 -7.666346 -1.184674 4.622 
995 795 -7.142359 -1.126678 1.487 
1005 795 -6.618372 -1.068682 1.055 
1015 795 -5.694732 -0.411703 1.041 
1025 795 -2.120766 0.008354 1.571 
1035 795 -2.427627 -0.779404 1.742 
1045 795 -3.844647 -1.390088 1.500 
1055 795 -4.528079 -1.319901 1.077 
1065 795 -5.356332 -1.157886 2.349 
1075 795 -6.121977 -0.724624 1.857 
1085 795 -6.236301 -0.659014 1.320 
1095 795 -6.350625 -0.593404 1.639 
1105 795 -4.334042 -0.901409 1.021 
1115 795 -1.656581 0.157616 1.003 
1125 795 -0.242276 -0.023006 1.081 
1135 795 1.172029 -0.203627 1.207 
1145 795 1.687476 -0.140300 1.302 
1155 795 1.889097 -1.315816 1.808 
1165 795 2.090718 -2.491332 1.223 
1175 795 0.800910 -9.918532 1.198 
1185 795 -0.400867 -16.823484 1.049 
1195 795 -0.003158 -16.794626 2.017 
1205 795 0.394551 -16.765768 1.587 
1215 795 0.792260 -16.736910 1.018 
1225 795 1.189969 -16.708052 1.044 
1235 795 1.587678 -16.679194 1.075 
1245 795 2.287666 -10.137109 1.185 
1255 795 0.000000 -0.000000 1.427 
1265 795 0.000000 -0.000000 1.022 
1275 795 0.000000 -0.000000 1.086 
5 785 6.511794 7.718998 1.068 
15 785 5.820400 5.158558 1.068 
25 785 5.409055 3.210045 1.259 
35 785 6.135845 3.411564 1.001 
45 785 -7.955080 -3.990459 1.022 
55 785 -4.132047 -9.726410 1.407 
65 785 -1.037207 -9.741215 1.182 
75 785 2.448746 -8.986087 1.375 
85 785 3.253714 -3.550056 1.099 
95 785 4.319493 -0.034650 1.432 
105 785 6.397159 -3.418778 1.435 
115 785 6.419534 -2.743293 1.688 
125 785 6.441909 -2.067809 1.549 
135 785 7.612761 1.055856 1.421 
145 785 7.108464 2.944281 1.558 
155 785 3.709901 5.678371 1.458 
165 785 0.412295 5.227741 1.382 
175 785 -2.885311 4.777112 2.034 
185 785 -4.401089 4.299787 2.174 
195 785 -5.200909 4.178068 1.973 
205 785 -4.725376 3.517861 1.764 
215 785 -4.152864 3.012490 1.240 
225 785 -3.988139 2.923631 1.987 
235 785 -4.042137 2.646333 1.959 
245 785 -4.019151 2.005776 2.593 
255 785 -3.575911 1.718407 2.029 
265 785 -3.307043 1.855666 1.333 
275 785 -3.687258 1.917073 1.221 
285 785 -4.169628 2.479584 3.694 
295 785 -4.657813 2.731087 7.747 
305 785 -4.769790 2.846125 3.915 
315 785 -4.490079 3.417335 1.064 
325 785 -4.109923 3.841747 2.221 
335 785 -4.314266 3.147563 2.607 
345 785 -4.465531 1.478297 4.017 
355 785 -4.425011 0.344868 4.236 
365 785 -4.650328 0.918280 1.872 
375 785 -4.934915 1.998395 2.250 
385 785 -5.022296 2.787763 3.019 
395 785 -5.296398 3.012762 1.412 
405 785 -5.132600 2.257663 1.629 
415 785 -5.148951 2.032612 2.508 
425 785 -4.833353 2.249476 2.356 
435 785 -4.304014 2.416905 2.566 
445 785 -3.782755 2.733994 2.507 
455 785 -2.790709 3.045386 1.678 
465 785 -2.890566 2.236404 2.787 
475 785 -2.990423 1.427423 1.131 
485 785 -2.669672 1.438277 1.400 
495 785 -3.044424 0.897064 1.338 
505 785 -2.852635 0.880144 2.554 
515 785 -2.428029 0.704539 2.010 
525 785 -2.125489 1.101065 1.252 
535 785 -1.943393 1.414285 1.283 
545 785 -1.534250 1.499197 4.665 
555 785 -1.832528 1.151933 1.703 
565 785 -2.605107 1.078882 1.081 
575 785 -3.545973 1.457705 1.120 
585 785 -3.111098 1.729628 1.536 
595 785 -2.347710 1.787214 2.973 
605 785 -2.419512 1.400706 3.339 
615 785 -2.586557 1.331421 2.487 
625 785 -2.909786 1.513291 20.000 
635 785 -3.438845 1.631790 22.144 
645 785 -4.273743 1.079582 3.819 
655 785 -5.029121 0.472786 2.328 
665 785 -5.717472 0.463367 2.207 
675 785 -6.218167 0.250842 1.391 
685 785 -6.084992 -0.236151 1.157 
695 785 -6.563423 -0.681102 2.253 
705 785 -7.487528 -0.658107 3.412 
715 785 -7.319767 -0.666962 5.109 
725 785 -6.516217 -1.067704 1.818 
735 785 -6.709668 -0.899476 1.361 
745 785 -6.841793 -0.433435 2.250 
755 785 -7.001076 -0.004959 2.090 
765 785 -7.104206 -0.232911 2.862 
775 785 -7.428520 -0.889780 2.202 
785 785 -7.222987 -1.263916 1.593 
795 785 -6.392149 -1.382303 2.062 
805 785 -6.455949 -1.484564 1.859 
815 785 -6.894929 -1.417210 1.540 
825 785 -6.921525 -1.468069 3.857 
835 785 -7.285920 -1.409989 2.061 
845 785 -7.154263 -1.392584 1.228 
855 785 -6.924608 -1.331325 1.334 
865 785 -7.146524 -1.116881 3.448 
875 785 -7.196724 -0.862593 4.279 
885 785 -7.475819 -0.495563 2.490 
895 785 -7.728821 -0.308317 3.364 
905 785 -7.873544 -0.286153 1.277 
915 785 -7.695581 0.147053 3.891 
925 785 -7.650215 0.119031 1.481 
935 785 -7.881147 0.487677 2.345 
945 785 -8.130939 2.594596 1.340 
955 785 -7.890007 4.084063 1.012 
965 785 -7.201969 2.372888 1.273 
975 785 -7.107507 -0.533582 2.685 
985 785 -7.482842 -0.967183 4.622 
995 785 -7.071399 -0.957721 1.487 
1005 785 -6.659955 -0.948260 1.055 
1015 785 -6.152899 -0.408300 1.041 
1025 785 -2.929829 -0.114621 1.571 
1035 785 -2.877239 -0.649091 1.742 
1045 785 -4.422732 -1.228634 1.500 
1055 785 -5.305961 -1.315949 1.077 
1065 785 -5.924773 -1.136330 2.349 
1075 785 -6.663546 -0.850538 1.857 
1085 785 -7.018608 -0.622113 1.320 
1095 785 -6.427271 -0.780414 1.639 
1105 785 -3.772855 -0.944769 1.021 
1115 785 -0.405975 -0.219271 1.003 
1125 785 2.464152 -0.297092 1.081 
1135 785 1.922386 -0.337023 1.207 
1145 785 1.761290 -0.051094 1.302 
1155 785 1.844922 -2.786721 1.808 
1165 785 2.065177 -6.215185 1.223 
1175 785 0.232504 -12.876643 1.198 
1185 785 -0.845723 -17.485650 1.049 
1195 785 -0.621051 -21.158572 2.017 
1205 785 -0.396379 -24.831495 1.587 
1215 785 -0.049361 -29.035644 1.018 
1225 785 -0.277936 -26.871953 1.044 
1235 785 -0.506511 -24.708262 1.075 
1245 785 0.300227 -14.641353 1.185 
1255 785 1.969777 -6.416994 1.427 
1265 785 3.639327 1.807366 1.022 
1275 785 0.000000 -0.000000 1.086 
5 775 4.202290 -11.551420 1.591 
15 775 2.220343 -14.324827 1.591 
25 775 0.496750 -15.073894 2.788 
35 775 -2.525500 -15.452364 1.096 
45 775 -5.453894 -12.787923 1.029 
55 775 -6.697500 -11.107766 1.800 
65 775 -2.054147 -10.777734 1.328 
75 775 0.369125 -8.445048 1.099 
85 775 1.914898 -4.420608 1.009 
95 775 3.905759 -1.085551 1.119 
105 775 5.969426 -1.629224 1.845 
115 775 6.660679 -0.717409 1.675 
125 775 6.366123 0.442074 1.592 
135 775 7.131187 1.955197 1.741 
145 775 6.615764 3.847881 1.428 
155 775 2.432763 4.654585 1.061 
165 775 -0.991313 5.887179 1.073 
175 775 -2.204238 3.032195 2.050 
185 775 -3.577695 2.736340 2.426 
195 775 -4.277223 2.803289 3.360 
205 775 -3.945809 2.928178 1.812 
215 775 -3.261677 3.107302 1.019 
225 775 -3.278516 2.960618 1.032 
235 775 -3.659329 2.503882 1.007 
245 775 -4.125006 1.946576 1.049 
255 775 -3.737578 1.696028 1.672 
265 775 -3.224708 2.076378 1.541 
275 775 -3.428495 2.361227 2.367 
285 775 -3.715708 2.448225 3.001 
295 775 -4.354878 2.347854 2.120 
305 775 -4.768009 2.246983 1.741 
315 775 -4.753750 2.673208 1.141 
325 775 -4.620408 3.022641 1.069 
335 775 -4.687529 2.317269 1.886 
345 775 -4.610688 1.140748 4.949 
355 775 -4.443057 0.553616 3.429 
365 775 -4.521988 0.865186 3.214 
375 775 -4.735510 2.170191 3.338 
385 775 -4.487962 2.890615 2.078 
395 775 -4.100934 3.165130 1.616 
405 775 -4.613168 2.601689 1.741 
415 775 -4.809969 2.227444 1.706 
425 775 -4.539037 2.447540 2.269 
435 775 -4.250970 2.678715 2.373 
445 775 -3.399083 2.195022 1.977 
455 775 -2.688028 2.160187 1.935 
465 775 -2.702697 2.360881 1.043 
475 775 -3.379774 1.795824 1.170 
485 775 -2.995635 1.525617 1.383 
495 775 -3.148726 2.013202 2.759 
505 775 -2.946919 1.759858 1.986 
515 775 -2.465327 1.621213 1.581 
525 775 -2.393530 1.518863 1.791 
535 775 -2.321464 1.284033 2.090 
545 775 -1.874765 1.258693 1.531 
555 775 -2.444235 0.962161 1.179 
565 775 -3.440760 0.893662 2.058 
575 775 -4.009064 0.650461 1.427 
585 775 -3.561443 0.966595 2.273 
595 775 -2.892045 1.208386 1.321 
605 775 -2.621616 1.147055 1.112 
615 775 -2.683802 1.139839 1.833 
625 775 -3.007844 1.319356 4.145 
635 775 -3.553018 1.592830 14.536 
645 775 -4.309292 1.244053 2.810 
655 775 -5.273818 0.702213 4.742 
665 775 -5.750970 0.015710 3.344 
675 775 -5.902492 -0.103331 2.482 
685 775 -6.225289 -0.426295 2.455 
695 775 -6.766720 -0.845179 2.624 
705 775 -7.235042 -0.664844 3.900 
715 775 -6.975779 -0.462390 1.603 
725 775 -6.566024 -0.805970 1.323 
735 775 -6.563170 -0.767214 1.107 
745 775 -6.974664 -0.538700 5.711 
755 775 -6.928616 -0.142486 2.435 
765 775 -7.024696 -0.361085 2.825 
775 775 -7.303237 -0.605806 2.654 
785 775 -7.182147 -0.855554 1.785 
795 775 -6.899795 -1.039979 2.464 
805 775 -6.757555 -1.272126 1.161 
815 775 -7.137430 -1.177942 1.962 
825 775 -7.472718 -0.983997 1.927 
835 775 -7.979920 -1.239853 2.512 
845 775 -8.052157 -1.396728 2.153 
855 775 -7.538616 -1.407611 1.599 
865 775 -7.316873 -1.110508 3.041 
875 775 -7.266507 -0.938342 1.973 
885 775 -7.351927 -0.790809 1.846 
895 775 -7.741885 -0.813218 2.790 
905 775 -7.745324 -0.366420 5.494 
915 775 -7.438776 -0.076850 1.979 
925 775 -7.241854 -0.155583 1.750 
935 775 -7.511865 0.216284 1.530 
945 775 -7.728506 0.887647 1.698 
955 775 -7.386268 0.705813 1.064 
965 775 -6.887252 -0.312927 1.558 
975 775 -6.565810 -0.532255 1.599 
985 775 -6.917291 -0.726128 2.182 
995 775 -6.915479 -0.916392 2.408 
1005 775 -6.836744 -0.677311 1.821 
1015 775 -6.048710 -0.679638 1.098 
1025 775 -3.738891 -0.237595 1.004 
1035 775 -4.192581 -0.767382 1.289 
1045 775 -4.377543 -0.682274 1.984 
1055 775 -5.989127 -0.845004 1.856 
1065 775 -6.361637 -1.080902 2.139 
1075 775 -6.632158 -0.891815 1.398 
1085 775 -6.849085 -0.481930 2.077 
1095 775 -6.840199 -0.382257 1.864 
1105 775 -4.322357 0.079065 1.046 
1115 775 -1.112622 0.181385 1.244 
1125 775 2.138795 -1.065865 1.468 
1135 775 2.672744 -0.470418 1.006 
1145 775 1.835104 0.038112 1.305 
1155 775 1.782112 -2.004680 1.656 
1165 775 0.771388 -5.534877 1.062 
1175 775 -0.213391 -10.051002 1.162 
1185 775 -0.673607 -13.879487 1.044 
1195 775 -0.341617 -17.650679 1.704 
1205 775 -0.406335 -19.510468 1.299 
1215 775 -0.506879 -26.017984 1.127 
1225 775 -1.082697 -24.236522 1.173 
1235 775 -0.902849 -21.765388 1.753 
1245 775 -0.723001 -19.294255 1.347 
1255 775 -0.054423 -6.520539 1.212 
1265 775 3.052610 -1.814519 1.421 
1275 775 0.000000 -0.000000 1.272 
5 765 -0.823737 -15.166291 2.139 
15 765 -3.751821 -13.622276 2.139 
25 765 -5.528684 -14.013436 1.448 
35 765 -6.400989 -14.227483 1.236 
45 765 -7.029225 -13.714446 1.372 
55 765 -9.178330 -10.761029 1.184 
65 765 -7.507994 -9.849961 1.197 
75 765 -3.958936 -6.781535 1.862 
85 765 -1.019959 -4.421954 1.974 
95 765 2.071353 -1.753553 1.137 
105 765 4.372080 0.287880 1.998 
115 765 4.858066 2.062491 1.731 
125 765 4.086061 1.288559 1.215 
135 765 4.879102 2.626135 1.189 
145 765 4.639493 3.776180 1.644 
155 765 1.155625 3.630800 1.542 
165 765 -1.759988 3.706655 1.231 
175 765 -1.747882 2.857747 2.888 
185 765 -2.544780 2.381557 2.103 
195 765 -2.973972 2.811249 2.310 
205 765 -2.568492 2.838644 2.035 
215 765 -3.039233 2.640619 1.290 
225 765 -3.261698 2.627194 1.123 
235 765 -3.525897 2.532259 1.475 
245 765 -3.783775 2.298240 1.253 
255 765 -4.011811 1.967673 1.721 
265 765 -3.641563 1.992862 2.076 
275 765 -3.365666 1.846301 1.626 
285 765 -3.386279 1.575088 1.196 
295 765 -3.961164 1.412935 1.726 
305 765 -5.039524 1.440791 2.790 
315 765 -4.969430 1.892091 4.999 
325 765 -5.029971 2.194768 3.156 
335 765 -5.009751 1.846981 1.592 
345 765 -4.885495 1.345588 1.871 
355 765 -4.455502 1.195824 3.094 
365 765 -4.235297 1.778787 2.647 
375 765 -4.627217 2.512058 4.029 
385 765 -4.047196 3.273631 1.834 
395 765 -3.665201 3.157260 2.379 
405 765 -4.085111 2.910016 16.958 
415 765 -4.278453 2.585296 5.115 
425 765 -4.170186 2.500040 2.164 
435 765 -4.154862 2.724125 1.138 
445 765 -3.446338 1.973306 2.847 
455 765 -2.752844 1.525347 2.203 
465 765 -3.271256 1.038817 1.331 
475 765 -3.380907 1.230673 1.128 
485 765 -3.321598 1.612957 1.716 
495 765 -3.225470 1.713951 2.077 
505 765 -3.193500 1.438740 1.684 
515 765 -2.961701 1.394377 1.568 
525 765 -2.652939 1.346762 3.419 
535 765 -2.514919 1.104742 1.640 
545 765 -2.400376 0.749492 1.438 
555 765 -3.075960 0.423126 3.693 
565 765 -3.849655 0.394864 3.230 
575 765 -4.332711 0.434435 1.864 
585 765 -3.914355 0.616953 2.398 
595 765 -3.274112 0.712726 1.044 
605 765 -2.800321 0.807680 1.069 
615 765 -2.873346 0.856159 1.159 
625 765 -3.121595 1.061766 2.072 
635 765 -3.774007 1.289963 2.156 
645 765 -4.288060 1.246809 2.018 
655 765 -4.894561 0.780287 1.848 
665 765 -5.139225 -0.148209 1.658 
675 765 -5.525750 -0.114937 3.376 
685 765 -5.991657 -0.368059 2.334 
695 765 -6.634417 -1.000046 1.681 
705 765 -7.017831 -0.835681 1.834 
715 765 -6.859036 -0.430449 1.058 
725 765 -6.523053 -0.440758 1.877 
735 765 -6.416671 -0.634951 1.520 
745 765 -6.778855 -0.551772 5.399 
755 765 -6.824360 -0.370120 3.125 
765 765 -7.042945 -0.378417 1.754 
775 765 -7.136151 -0.606525 1.414 
785 765 -7.052748 -0.844755 2.682 
795 765 -6.953154 -0.991284 2.480 
805 765 -7.073746 -1.132135 1.622 
815 765 -7.306444 -1.104437 1.865 
825 765 -7.801760 -1.023926 2.545 
835 765 -8.319772 -1.125128 5.519 
845 765 -8.083657 -1.172073 3.205 
855 765 -7.444462 -1.370368 1.519 
865 765 -7.539179 -1.153340 2.253 
875 765 -7.550681 -0.972531 1.297 
885 765 -7.453127 -0.924461 1.962 
895 765 -7.296672 -0.898488 2.005 
905 765 -7.573582 -0.477668 2.578 
915 765 -7.426772 -0.450399 1.891 
925 765 -7.233420 -0.460561 1.916 
935 765 -7.361964 -0.142250 1.829 
945 765 -7.327848 0.252658 5.072 
955 765 -7.363914 0.086360 1.397 
965 765 -6.813260 -0.817938 1.864 
975 765 -6.483745 -0.754298 2.517 
985 765 -6.813226 -0.412903 2.027 
995 765 -6.913379 -0.409632 2.203 
1005 765 -7.013532 -0.406362 1.069 
1015 765 -5.783708 -0.342042 1.077 
1025 765 -5.084993 -0.400443 2.423 
1035 765 -5.036446 -0.436813 2.605 
1045 765 -5.460061 -0.290631 1.246 
1055 765 -6.169379 -0.486145 2.412 
1065 765 -6.506524 -0.476452 1.132 
1075 765 -6.662973 -0.432211 1.032 
1085 765 -7.122603 -0.330142 2.524 
1095 765 -7.131089 -0.365457 2.022 
1105 765 -5.904218 -0.102231 1.018 
1115 765 -3.683624 0.102074 1.807 
1125 765 -1.134976 -1.943191 2.163 
1135 765 -0.354408 -1.014605 2.660 
1145 765 0.018492 -0.613307 1.076 
1155 765 0.334056 -0.210926 1.269 
1165 765 -0.266102 -3.374105 1.202 
1175 765 -0.458823 -7.779264 1.045 
1185 765 -0.372173 -11.696227 1.017 
1195 765 -0.145593 -15.497401 1.893 
1205 765 -0.177750 -18.434202 1.581 
1215 765 -0.115079 -20.813453 1.451 
1225 765 -0.712600 -24.196284 1.115 
1235 765 -0.291837 -23.862167 1.249 
1245 765 0.128927 -23.528051 1.446 
1255 765 0.934247 -14.283395 1.456 
1265 765 2.465893 -5.436404 1.950 
1275 765 0.000000 -0.000000 1.837 
5 755 -8.042168 -11.395829 1.224 
15 755 -9.723986 -12.919726 1.224 
25 755 -11.554119 -12.952977 1.014 
35 755 -10.276479 -13.002603 1.007 
45 755 -9.020025 -12.219444 1.096 
55 755 -12.653618 -9.042915 1.027 
65 755 -14.316718 -7.888374 1.328 
75 755 -9.175879 -6.058059 1.565 
85 755 -3.847674 -3.208865 1.931 
95 755 -0.394960 -0.690402 1.995 
105 755 1.069624 0.675038 1.674 
115 755 1.262171 1.765377 1.369 
125 755 1.805999 2.135044 1.651 
135 755 2.614284 2.445454 1.307 
145 755 2.552474 2.734363 1.045 
155 755 1.304018 3.875759 1.138 
165 755 -2.366572 3.710992 1.067 
175 755 -1.747694 2.953765 7.545 
185 755 -1.722317 2.530334 7.475 
195 755 -1.670721 2.819209 1.401 
205 755 -1.813329 2.924527 1.239 
215 755 -2.675985 2.911298 2.008 
225 755 -3.203606 2.704190 1.313 
235 755 -3.327399 2.511994 1.538 
245 755 -3.451947 2.594051 1.257 
255 755 -3.834639 1.939185 2.085 
265 755 -3.545539 1.964603 1.117 
275 755 -3.200744 1.393046 7.334 
285 755 -3.103653 1.171856 2.195 
295 755 -3.649211 0.868687 2.467 
305 755 -4.676399 1.073278 5.909 
315 755 -4.846878 1.528851 12.081 
325 755 -4.990428 1.744693 3.813 
335 755 -4.787090 1.760308 1.809 
345 755 -4.777327 1.525756 1.797 
355 755 -5.118072 1.724356 1.612 
365 755 -4.417450 2.298169 2.431 
375 755 -4.636332 3.108199 2.242 
385 755 -4.126732 3.394748 2.411 
395 755 -3.952009 3.378362 2.328 
405 755 -3.747133 2.873693 14.801 
415 755 -3.703243 2.473537 5.882 
425 755 -3.541409 2.399471 2.034 
435 755 -3.801512 1.912170 1.027 
445 755 -3.268944 1.764581 1.589 
455 755 -2.974384 0.837757 1.959 
465 755 -3.200169 0.674287 2.281 
475 755 -3.382039 0.665523 1.027 
485 755 -3.187529 0.781734 1.934 
495 755 -3.220808 0.914855 2.612 
505 755 -2.876986 1.076382 2.948 
515 755 -2.932774 1.014925 2.200 
525 755 -2.940242 0.980775 3.170 
535 755 -2.710005 0.839081 2.202 
545 755 -3.073042 0.380815 2.039 
555 755 -3.573424 0.171015 4.343 
565 755 -4.005014 0.169957 4.880 
575 755 -4.099588 0.496557 3.338 
585 755 -3.634097 0.894341 3.111 
595 755 -3.433332 0.904228 1.688 
605 755 -3.191021 0.803651 1.618 
615 755 -3.055601 0.625239 1.467 
625 755 -3.169652 0.404830 2.348 
635 755 -3.605492 1.124832 1.876 
645 755 -4.330306 1.132808 1.278 
655 755 -4.675113 0.400721 1.003 
665 755 -4.880099 -0.448886 2.296 
675 755 -5.145725 -0.346528 8.390 
685 755 -5.644913 -0.407047 7.352 
695 755 -6.328318 -0.924214 1.298 
705 755 -6.783897 -0.950343 1.415 
715 755 -6.605765 -0.417344 1.510 
725 755 -6.425186 -0.163610 1.320 
735 755 -6.375999 -0.266375 2.616 
745 755 -6.491542 -0.461348 3.604 
755 755 -6.727983 -0.413794 2.497 
765 755 -6.606190 -0.563657 1.816 
775 755 -6.816455 -0.768095 2.758 
785 755 -6.795000 -0.868597 4.491 
795 755 -6.879034 -1.019027 2.849 
805 755 -7.013030 -0.995279 1.496 
815 755 -7.082092 -1.065110 2.930 
825 755 -7.694272 -1.077679 3.920 
835 755 -7.638659 -0.941040 3.710 
845 755 -7.369078 -1.079066 1.883 
855 755 -7.351734 -1.136400 1.705 
865 755 -7.468571 -1.066910 3.933 
875 755 -7.611676 -0.892409 2.716 
885 755 -7.506432 -1.095200 3.023 
895 755 -7.405078 -1.144648 2.291 
905 755 -7.676895 -0.829249 2.704 
915 755 -7.764412 -0.659581 2.193 
925 755 -7.763130 -0.612815 1.483 
935 755 -7.545749 -0.336986 2.147 
945 755 -7.317293 -0.084495 2.115 
955 755 -7.309768 -0.223867 1.194 
965 755 -6.701073 -0.906337 2.046 
975 755 -6.464877 -0.754127 1.818 
985 755 -6.821428 -0.167055 2.333 
995 755 -7.198960 -0.219948 2.765 
1005 755 -7.576493 -0.272841 1.133 
1015 755 -6.405993 -0.302973 1.585 
1025 755 -5.667657 -0.213277 4.752 
1035 755 -5.770235 -0.226930 4.486 
1045 755 -6.465861 -0.008811 1.429 
1055 755 -6.695106 0.053650 2.852 
1065 755 -6.664813 0.006404 5.239 
1075 755 -6.564556 -0.116693 1.673 
1085 755 -6.707220 -0.682683 1.269 
1095 755 -7.084962 -0.925811 1.994 
1105 755 -7.026592 -0.581683 1.153 
1115 755 -5.813833 -0.430210 1.037 
1125 755 -5.320788 -2.143639 1.302 
1135 755 -3.381560 -1.558793 1.601 
1145 755 -1.798119 -1.264726 1.001 
1155 755 -0.491032 -2.090517 1.022 
1165 755 -0.205302 -3.704104 1.593 
1175 755 -0.463879 -5.935970 1.042 
1185 755 -0.143036 -10.458689 1.164 
1195 755 0.035293 -17.714243 1.208 
1205 755 0.273571 -19.707810 1.144 
1215 755 0.924148 -21.961190 1.548 
1225 755 0.406578 -24.477565 1.003 
1235 755 0.258360 -24.051944 1.327 
1245 755 1.091309 -22.508685 1.283 
1255 755 1.922917 -22.046251 1.162 
1265 755 1.879177 -9.058289 1.351 
1275 755 0.000000 -0.000000 1.113 
5 745 -12.807859 -14.973241 1.280 
15 745 -14.437756 -15.218530 1.280 
25 745 -15.410872 -13.489255 2.224 
35 745 -15.664202 -11.167026 1.591 
45 745 -17.142022 -9.951906 1.053 
55 745 -18.969855 -9.172352 1.769 
65 745 -17.932819 -7.576937 1.777 
75 745 -12.261603 -5.253756 1.319 
85 745 -5.287891 -3.353928 1.612 
95 745 -1.713707 -2.754819 1.101 
105 745 -0.643561 -0.987688 1.360 
115 745 -1.465642 -0.059507 1.473 
125 745 -0.391576 1.421077 1.597 
135 745 0.349465 2.264772 2.877 
145 745 0.345059 2.812450 20.000 
155 745 -0.472505 3.386743 1.731 
165 745 -1.563669 3.772644 1.769 
175 745 -1.747507 3.049782 1.135 
185 745 -1.584725 2.314076 3.334 
195 745 -1.376461 2.764022 4.640 
205 745 -1.315446 2.889236 1.856 
215 745 -2.509606 2.748267 3.129 
225 745 -3.035637 2.502790 1.628 
235 745 -3.128900 2.491728 3.921 
245 745 -3.447544 2.083892 1.927 
255 745 -3.657467 1.910697 2.798 
265 745 -3.388789 1.992983 1.845 
275 745 -2.981209 1.639433 1.201 
285 745 -2.901398 1.116023 2.243 
295 745 -3.471182 1.023449 1.312 
305 745 -4.104337 1.222378 1.923 
315 745 -4.276792 1.585816 4.003 
325 745 -4.301067 1.663488 3.769 
335 745 -4.564430 1.673634 1.037 
345 745 -4.669158 1.705923 1.133 
355 745 -3.617898 1.070181 1.982 
365 745 -3.962903 2.175129 2.439 
375 745 -4.138797 3.322701 4.326 
385 745 -4.206268 3.515864 3.843 
395 745 -3.917189 3.067142 1.363 
405 745 -3.410967 2.535121 5.196 
415 745 -3.089629 2.412807 6.191 
425 745 -2.924098 2.390471 2.239 
435 745 -3.100517 2.011429 1.411 
445 745 -3.091550 1.555857 1.042 
455 745 -2.903042 1.222768 1.714 
465 745 -3.283464 1.048638 2.542 
475 745 -3.384004 0.911402 2.636 
485 745 -3.130864 0.805008 1.794 
495 745 -3.095401 1.082449 1.625 
505 745 -3.561863 1.035355 1.659 
515 745 -3.426818 1.007548 1.063 
525 745 -3.087607 0.980941 1.640 
535 745 -3.322118 0.631234 3.418 
545 745 -3.552695 0.529118 2.000 
555 745 -3.831858 0.324183 2.872 
565 745 -3.782696 0.310255 2.723 
575 745 -3.291086 0.964569 3.315 
585 745 -3.380272 0.765670 18.264 
595 745 -3.173195 0.788177 2.879 
605 745 -2.990838 0.617359 3.539 
615 745 -2.961639 0.446365 3.352 
625 745 -3.225537 0.298622 1.793 
635 745 -3.474203 0.965137 2.139 
645 745 -4.182611 0.819749 3.240 
655 745 -4.562720 -0.111185 1.935 
665 745 -4.835901 -0.870967 2.595 
675 745 -5.317593 -0.784091 1.224 
685 745 -5.569109 -0.430032 1.166 
695 745 -5.879555 -0.668699 1.320 
705 745 -6.395377 -0.698062 1.175 
715 745 -6.007077 -0.608355 1.134 
725 745 -5.979343 -0.588102 2.111 
735 745 -6.133375 -0.595963 2.556 
745 745 -6.396297 -0.682063 3.644 
755 745 -6.880771 -0.926519 3.167 
765 745 -6.942208 -1.064492 2.997 
775 745 -6.630779 -0.908737 3.284 
785 745 -6.548152 -0.910815 4.200 
795 745 -6.707767 -0.945589 1.613 
805 745 -6.770560 -0.945500 1.417 
815 745 -6.659863 -0.938951 2.218 
825 745 -6.925175 -0.873522 4.086 
835 745 -7.125954 -0.926133 1.725 
845 745 -7.152661 -1.057712 1.237 
855 745 -7.261236 -0.962212 2.598 
865 745 -7.314265 -1.060868 1.900 
875 745 -7.455129 -1.024959 2.833 
885 745 -7.433316 -1.206528 2.606 
895 745 -7.791579 -1.184456 2.700 
905 745 -7.789364 -1.075187 2.350 
915 745 -7.805910 -0.906965 2.626 
925 745 -7.980562 -0.665863 1.808 
935 745 -7.799907 -0.381894 1.777 
945 745 -7.285948 0.139969 1.499 
955 745 -7.030760 0.110341 1.814 
965 745 -6.542033 -0.640434 1.841 
975 745 -6.074598 -1.049297 1.820 
985 745 -6.827650 -0.005429 1.106 
995 745 -7.738948 -0.983256 2.213 
1005 745 -7.917588 -0.955867 1.322 
1015 745 -7.240813 -0.658056 1.409 
1025 745 -6.279479 -0.370848 2.703 
1035 745 -6.250770 -0.285957 1.879 
1045 745 -7.306106 -0.117500 2.127 
1055 745 -7.156745 0.041154 3.278 
1065 745 -6.792325 -0.076835 4.201 
1075 745 -6.551420 -0.495348 1.251 
1085 745 -6.655044 -0.802051 1.128 
1095 745 -6.529232 -0.909644 1.544 
1105 745 -6.929460 -0.668287 1.431 
1115 745 -6.866678 -1.303701 2.225 
1125 745 -6.568814 -1.390261 1.128 
1135 745 -4.858481 -1.256428 1.645 
1145 745 -3.999371 -1.611649 1.488 
1155 745 -1.840848 -3.614401 1.162 
1165 745 -0.437393 -4.710469 1.029 
1175 745 -0.682824 -9.055736 1.234 
1185 745 -0.047886 -10.394706 2.097 
1195 745 0.129861 -19.845629 1.067 
1205 745 1.017279 -21.572777 1.223 
1215 745 1.982396 -23.804733 1.635 
1225 745 1.341737 -24.082250 1.408 
1235 745 1.739055 -23.805584 1.269 
1245 745 2.053692 -21.489319 1.637 
1255 745 2.491618 -20.654711 1.051 
1265 745 1.292460 -12.680174 1.224 
1275 745 0.000000 -0.000000 1.313 
5 735 -13.791264 -19.625921 1.052 
15 735 -14.959581 -15.986952 1.052 
25 735 -16.466995 -15.155882 1.005 
35 735 -16.832812 -11.732190 1.020 
45 735 -18.351932 -9.731196 1.187 
55 735 -19.160420 -9.003250 1.154 
65 735 -18.789268 -7.582946 1.368 
75 735 -8.901041 -5.493212 1.113 
85 735 -0.896250 -3.599598 1.018 
95 735 -1.425574 -3.190674 1.423 
105 735 -1.954897 -2.781750 1.281 
115 735 -0.576649 0.612342 1.039 
125 735 -0.931495 2.696652 2.144 
135 735 -1.113788 3.650690 5.549 
145 735 -1.209980 3.642550 3.975 
155 735 -1.636872 3.870376 2.199 
165 735 -1.620468 4.244286 1.756 
175 735 -2.134246 3.580698 1.080 
185 735 -1.933737 2.594695 5.953 
195 735 -1.709038 2.499424 9.165 
205 735 -1.569193 2.687275 1.125 
215 735 -2.244146 2.722474 1.422 
225 735 -2.802424 2.280925 1.151 
235 735 -2.796337 2.161283 1.790 
245 735 -3.356373 1.656121 6.400 
255 735 -3.319805 1.643604 3.083 
265 735 -3.009654 1.952805 2.273 
275 735 -2.814921 1.714958 1.095 
285 735 -2.927501 1.378078 1.042 
295 735 -3.313584 1.253268 1.013 
305 735 -3.651964 1.256603 1.159 
315 735 -3.691392 1.796017 1.872 
325 735 -3.564327 2.048681 1.723 
335 735 -3.003008 1.905550 1.414 
345 735 -1.891387 0.744578 1.728 
355 735 -2.117723 0.416005 1.063 
365 735 -2.161168 1.820042 1.766 
375 735 -2.508894 3.470327 1.715 
385 735 -3.791439 3.629016 2.017 
395 735 -3.213208 2.935090 1.538 
405 735 -2.935662 2.190321 1.259 
415 735 -1.939957 2.551034 1.010 
425 735 -2.159721 2.599090 1.269 
435 735 -2.691324 2.528313 1.183 
445 735 -2.902679 1.834634 2.185 
455 735 -3.123880 1.436229 1.918 
465 735 -3.582773 1.277560 3.364 
475 735 -3.766103 1.340881 2.375 
485 735 -3.685018 0.960520 2.216 
495 735 -3.732552 1.077675 3.238 
505 735 -4.284799 1.072628 1.605 
515 735 -3.829803 1.145583 1.118 
525 735 -3.186047 1.166898 2.344 
535 735 -3.049629 0.800647 2.587 
545 735 -3.579149 0.733225 13.751 
555 735 -3.852418 0.712422 3.930 
565 735 -3.656671 0.680846 1.789 
575 735 -3.345488 0.776463 1.965 
585 735 -3.126447 0.636998 3.884 
595 735 -3.240638 0.390271 6.662 
605 735 -3.211995 0.354734 4.528 
615 735 -3.188687 0.285791 3.188 
625 735 -3.598756 0.682494 1.297 
635 735 -3.913984 0.578434 2.491 
645 735 -4.245409 0.225838 1.924 
655 735 -4.364290 -0.473717 1.204 
665 735 -5.041542 -1.233185 1.039 
675 735 -5.489461 -1.221654 1.029 
685 735 -5.677433 -0.438674 1.048 
695 735 -6.109826 -0.483293 1.708 
705 735 -6.224350 -0.477400 1.499 
715 735 -6.008379 -0.657929 2.418 
725 735 -6.149962 -0.734966 1.370 
735 735 -6.435463 -0.833942 2.022 
745 735 -6.627642 -0.802011 5.029 
755 735 -6.812029 -1.061096 2.557 
765 735 -6.753054 -1.190116 2.341 
775 735 -6.524261 -0.973093 2.446 
785 735 -6.600620 -0.948429 3.713 
795 735 -6.639925 -0.958320 3.594 
805 735 -6.651903 -0.994477 2.261 
815 735 -6.620689 -0.967947 3.866 
825 735 -6.772867 -0.925515 2.980 
835 735 -6.983763 -1.114904 1.375 
845 735 -7.098234 -1.230051 1.651 
855 735 -7.317005 -1.142624 4.158 
865 735 -7.273325 -1.159193 1.159 
875 735 -7.234782 -1.231003 1.957 
885 735 -7.418879 -1.464100 2.621 
895 735 -7.758624 -1.288394 2.147 
905 735 -7.947420 -1.110869 2.742 
915 735 -7.930655 -0.889969 2.462 
925 735 -7.945573 -0.547263 1.991 
935 735 -7.718795 -0.145292 2.618 
945 735 -7.317513 0.309476 1.441 
955 735 -6.498560 0.258609 1.045 