TITLE = "B00342"
VARIABLES = "x", "y", "u", "v", "sn"
ZONE T="Frame 0", I=128, J=80
5 795 1.864206 -22.429210 1.154 
15 795 2.201319 -21.081597 1.154 
25 795 3.520033 -20.650964 1.036 
35 795 4.838747 -20.220332 1.248 
45 795 0.930276 -12.146350 1.049 
55 795 0.072514 -5.446934 1.299 
65 795 -0.785249 1.252482 1.159 
75 795 -1.643011 7.951898 1.377 
85 795 -5.859590 -7.092440 1.032 
95 795 -6.560166 -4.948605 1.026 
105 795 -2.724817 1.318942 1.778 
115 795 -0.201845 0.396686 2.084 
125 795 -0.268870 -0.315265 1.283 
135 795 -2.598011 1.892568 1.033 
145 795 -4.927152 4.100402 1.589 
155 795 -6.320388 3.811235 1.093 
165 795 -7.713624 3.522069 1.050 
175 795 -9.106860 3.232902 2.042 
185 795 -8.506442 3.652821 1.151 
195 795 -6.885409 3.553326 2.191 
205 795 -5.774766 3.220612 1.898 
215 795 -4.506625 3.232931 1.075 
225 795 -3.238484 3.245250 1.136 
235 795 -2.338326 3.945443 1.787 
245 795 -2.717610 4.234302 2.051 
255 795 -3.880801 4.108789 1.593 
265 795 -3.646720 5.016563 1.106 
275 795 -4.133383 4.958494 1.328 
285 795 -4.620047 4.900425 2.554 
295 795 -5.611907 4.409591 3.540 
305 795 -5.274267 4.244998 1.044 
315 795 -4.879830 4.817706 1.277 
325 795 -4.853255 4.124402 1.096 
335 795 -4.826681 3.431099 2.077 
345 795 -4.800106 2.737795 1.619 
355 795 -4.603894 3.439898 1.122 
365 795 -4.407682 4.142001 1.447 
375 795 -4.932884 4.450506 1.212 
385 795 -5.458086 4.759011 1.009 
395 795 -5.653229 3.525244 1.494 
405 795 -5.226611 3.209656 1.360 
415 795 -4.272642 3.873273 1.811 
425 795 -3.397428 4.972697 1.492 
435 795 -2.303480 5.641200 1.539 
445 795 -1.358741 6.348604 1.443 
455 795 -1.475935 6.360813 1.142 
465 795 -1.441702 5.986558 1.087 
475 795 -1.439090 5.493836 2.631 
485 795 -1.573455 5.154028 2.783 
495 795 -2.083845 4.813761 1.984 
505 795 -3.077971 4.184540 1.307 
515 795 -3.605748 4.195752 1.082 
525 795 -4.123404 4.191896 1.743 
535 795 -4.819226 4.554793 2.350 
545 795 -5.449523 4.619253 2.119 
555 795 -5.641937 3.344796 1.581 
565 795 -5.465354 1.901037 1.237 
575 795 -5.179152 0.508054 4.086 
585 795 -5.292279 0.108205 14.496 
595 795 -4.812607 1.787398 25.342 
605 795 -2.957761 10.709180 1.003 
615 795 -3.294146 8.372500 1.133 
625 795 -3.630532 6.035820 1.036 
635 795 -3.966917 3.699140 2.031 
645 795 -4.303303 1.362459 1.764 
655 795 -4.287627 1.253071 2.433 
665 795 -4.271951 1.143683 1.106 
675 795 -4.102851 1.243233 1.159 
685 795 -3.593067 0.978564 1.602 
695 795 -3.712185 0.605932 1.863 
705 795 -3.831302 0.233300 2.446 
715 795 -4.555120 0.971848 6.168 
725 795 -4.660502 1.392236 5.930 
735 795 -3.883214 2.086020 1.656 
745 795 -3.751648 2.650329 1.941 
755 795 -3.590336 3.406764 2.257 
765 795 -3.428888 3.538991 2.536 
775 795 -3.267440 3.671219 3.215 
785 795 -4.164822 2.933037 2.713 
795 795 -4.865818 2.398064 1.634 
805 795 -4.890588 2.521129 1.695 
815 795 -4.587338 2.764402 3.001 
825 795 -4.143975 2.800836 10.918 
835 795 -4.246493 2.502315 5.743 
845 795 -4.806210 2.290999 2.075 
855 795 -5.142189 2.384506 2.754 
865 795 -5.537610 2.147353 1.439 
875 795 -5.798545 1.963874 1.902 
885 795 -5.918114 1.987564 1.491 
895 795 -6.037684 2.011255 1.896 
905 795 -5.325351 1.852834 1.670 
915 795 -5.607778 1.507177 1.043 
925 795 -5.890206 1.161521 1.144 
935 795 -6.172633 0.815865 5.008 
945 795 -5.787521 1.033510 20.000 
955 795 -5.326887 1.141028 3.299 
965 795 -5.363946 1.425495 1.160 
975 795 -6.234497 1.851622 1.479 
985 795 -5.834651 2.508954 6.064 
995 795 -6.447806 2.957680 2.423 
1005 795 -12.364035 3.088932 1.774 
1015 795 -10.563269 2.395263 1.128 
1025 795 -8.762502 1.701595 2.893 
1035 795 -7.696832 1.222980 2.147 
1045 795 -6.534107 0.452149 1.343 
1055 795 -6.050597 0.944768 2.136 
1065 795 -6.521820 2.090863 3.006 
1075 795 -6.733483 2.563045 1.740 
1085 795 -6.621836 2.761623 1.114 
1095 795 -6.034454 2.817805 1.444 
1105 795 -4.105183 2.745980 1.200 
1115 795 1.494253 4.670869 1.206 
1125 795 2.420540 6.783658 1.510 
1135 795 -1.498452 10.269555 1.209 
1145 795 0.152404 12.527250 1.608 
1155 795 1.953339 13.034966 1.416 
1165 795 2.484592 10.908396 1.083 
1175 795 3.015844 8.781826 1.344 
1185 795 3.144140 5.262721 1.054 
1195 795 3.272435 1.743616 1.335 
1205 795 3.400731 -1.775489 1.155 
1215 795 3.529026 -5.294594 1.277 
1225 795 3.657322 -8.813699 1.011 
1235 795 3.785617 -12.332804 1.384 
1245 795 5.338752 -5.395174 1.225 
1255 795 6.891887 1.542457 1.114 
1265 795 2.832729 -2.983932 1.078 
1275 795 0.000000 -0.000000 1.023 
5 785 2.047701 -22.103561 1.154 
15 785 3.790464 -19.173511 1.154 
25 785 4.235989 -18.172408 1.036 
35 785 4.681514 -17.171305 1.248 
45 785 1.287619 -7.289729 1.049 
55 785 0.301172 -2.380819 1.299 
65 785 -0.685276 2.528090 1.159 
75 785 -1.671723 7.437000 1.377 
85 785 -5.264808 -1.517850 1.032 
95 785 -6.669665 -1.825868 1.026 
105 785 -3.536920 2.349633 1.778 
115 785 -0.877739 0.943799 2.084 
125 785 -1.237246 -0.099791 1.283 
135 785 0.216027 -0.842508 1.033 
145 785 -2.909618 2.040711 1.589 
155 785 -10.093094 5.300557 1.093 
165 785 -9.651427 4.730125 1.050 
175 785 -9.209759 4.159693 2.042 
185 785 -7.914817 4.264187 1.151 
195 785 -6.461167 3.723346 2.191 
205 785 -5.859387 3.420617 1.898 
215 785 -5.075120 3.075874 1.075 
225 785 -3.686329 3.300395 1.136 
235 785 -2.618916 3.782409 1.787 
245 785 -2.820447 4.084213 2.051 
255 785 -3.736780 3.989819 1.593 
265 785 -3.476543 4.751558 1.106 
275 785 -3.351013 5.310676 1.328 
285 785 -4.422238 4.586956 2.554 
295 785 -5.329253 4.114933 3.540 
305 785 -4.980295 3.896464 1.044 
315 785 -4.465718 4.570653 1.277 
325 785 -4.439520 5.029893 1.096 
335 785 -4.576556 3.972872 2.077 
345 785 -4.843486 2.890584 1.619 
355 785 -4.424559 3.493355 1.122 
365 785 -4.811367 4.455250 1.447 
375 785 -5.070375 4.645964 1.212 
385 785 -5.329383 4.836678 1.009 
395 785 -5.410923 3.654976 1.494 
405 785 -4.959244 3.437292 1.360 
415 785 -4.075893 4.111819 1.811 
425 785 -3.165640 5.096857 1.492 
435 785 -2.078335 5.600934 1.539 
445 785 -1.170373 6.309281 1.443 
455 785 -1.083820 6.150354 1.142 
465 785 -1.215759 5.944954 1.087 
475 785 -1.328010 5.453166 2.631 
485 785 -1.471695 5.073511 2.783 
495 785 -1.946070 4.733109 1.984 
505 785 -2.882773 4.164341 1.307 
515 785 -3.406708 4.238836 1.082 
525 785 -3.906902 4.221808 1.743 
535 785 -4.561226 4.488429 2.350 
545 785 -5.231086 4.456146 2.119 
555 785 -5.501332 3.709464 1.581 
565 785 -5.556476 2.504362 1.237 
575 785 -5.465774 1.026338 4.086 
585 785 -5.764917 -0.015873 14.496 
595 785 -5.357836 1.101135 25.342 
605 785 -3.643222 9.189631 1.003 
615 785 -3.630400 6.446219 1.133 
625 785 -4.116567 3.798935 1.036 
635 785 -4.602734 1.151650 2.031 
645 785 -4.420515 0.750966 1.764 
655 785 -3.968301 0.977824 2.433 
665 785 -4.281698 1.301089 1.106 
675 785 -4.235880 1.343033 1.159 
685 785 -3.882187 1.073525 1.602 
695 785 -3.773615 0.360383 1.863 
705 785 -3.932306 0.370232 2.446 
715 785 -5.056734 0.718507 6.168 
725 785 -4.895357 1.297366 5.930 
735 785 -3.772238 2.162229 1.656 
745 785 -3.523263 2.785053 1.941 
755 785 -3.944842 3.136263 2.257 
765 785 -3.794224 3.622765 2.536 
775 785 -3.680825 3.443328 3.215 
785 785 -4.409686 2.961086 2.713 
795 785 -5.059308 2.446738 1.634 
805 785 -5.038818 2.577783 1.695 
815 785 -4.805494 2.808869 3.001 
825 785 -4.434490 2.874270 10.918 
835 785 -4.477783 2.618340 5.743 
845 785 -4.924947 2.347143 2.075 
855 785 -5.169157 2.396977 2.754 
865 785 -5.544246 2.213798 1.439 
875 785 -5.756169 2.123495 1.902 
885 785 -5.846741 2.244902 1.491 
895 785 -5.553314 2.234764 1.896 
905 785 -4.971258 2.151186 1.670 
915 785 -5.857731 1.105189 1.043 
925 785 -6.897555 0.514347 1.144 
935 785 -6.073744 1.034134 5.008 
945 785 -5.877050 1.171961 20.000 
955 785 -5.390328 1.192916 3.299 
965 785 -5.439813 1.413453 1.160 
975 785 -6.283597 1.847735 1.479 
985 785 -5.911270 2.363820 6.064 
995 785 -6.010292 2.817895 2.423 
1005 785 -9.765937 2.855378 1.774 
1015 785 -11.191328 2.502384 1.128 
1025 785 -8.028500 1.844272 2.893 
1035 785 -7.490842 1.307283 2.147 
1045 785 -6.295006 0.475683 1.343 
1055 785 -6.187756 1.309211 2.136 
1065 785 -6.337786 2.030392 3.006 
1075 785 -6.697185 2.326222 1.740 
1085 785 -6.563760 2.543128 1.114 
1095 785 -5.607078 2.602605 1.444 
1105 785 -3.455044 2.473225 1.200 
1115 785 1.538675 4.411011 1.206 
1125 785 0.269443 6.242004 1.510 
1135 785 -1.560732 9.738112 1.209 
1145 785 -0.305489 12.410024 1.608 
1155 785 0.872117 14.408252 1.416 
1165 785 1.735608 12.289037 1.083 
1175 785 2.599099 10.169822 1.344 
1185 785 2.999532 -1.487193 1.054 
1195 785 6.339414 -11.625802 1.335 
1205 785 5.040184 -12.068231 1.155 
1215 785 1.633675 -12.120200 1.277 
1225 785 -1.772834 -12.172170 1.011 
1235 785 0.642826 -4.224958 1.384 
1245 785 5.023196 1.269063 1.225 
1255 785 5.253572 1.293600 1.114 
1265 785 2.031658 -4.356295 1.078 
1275 785 0.000000 -0.000000 1.023 
5 775 4.035061 -23.167908 1.255 
15 775 5.201834 -18.873199 1.255 
25 775 5.300968 -13.478809 1.110 
35 775 5.400103 -8.084419 1.651 
45 775 1.518476 -2.881569 1.868 
55 775 0.688475 -4.154466 1.348 
65 775 -0.378620 0.637580 1.314 
75 775 -1.445714 5.429626 1.292 
85 775 -4.295251 -1.932323 1.030 
95 775 -6.779163 1.296869 1.246 
105 775 -5.462576 2.597334 1.192 
115 775 -3.639426 -2.503262 1.061 
125 775 -3.349331 -2.172808 1.190 
135 775 -2.409634 -0.468309 1.055 
145 775 -0.220086 -0.990436 1.009 
155 775 -9.839016 2.562897 1.117 
165 775 -9.694410 3.820630 1.084 
175 775 -8.508435 4.197253 2.341 
185 775 -7.014719 4.576432 3.317 
195 775 -5.397770 3.818523 3.205 
205 775 -5.160082 3.291349 5.865 
215 775 -5.007855 2.916527 1.118 
225 775 -4.040401 3.142355 1.438 
235 775 -3.031585 3.616407 1.762 
245 775 -3.041850 3.816322 2.245 
255 775 -3.516420 3.769260 2.025 
265 775 -3.479084 4.220618 1.264 
275 775 -3.841916 4.277316 2.031 
285 775 -4.674496 3.817508 2.798 
295 775 -4.992663 3.427732 2.005 
305 775 -4.158354 3.654228 2.129 
315 775 -3.147035 4.487532 1.822 
325 775 -3.261868 4.418204 1.640 
335 775 -3.648447 3.714992 1.262 
345 775 -4.528548 4.122498 2.217 
355 775 -4.752122 4.655039 5.446 
365 775 -5.194633 4.835470 2.305 
375 775 -4.783900 4.585047 1.210 
385 775 -4.373168 4.334625 2.255 
395 775 -4.571586 3.754306 2.318 
405 775 -4.188273 3.579408 3.174 
415 775 -3.198083 4.465325 2.626 
425 775 -2.359213 5.471180 2.697 
435 775 -1.479379 5.830602 2.599 
445 775 -0.975926 5.815832 1.690 
455 775 -0.711736 5.824461 1.403 
465 775 -0.865649 5.719336 2.241 
475 775 -1.023986 5.163577 3.077 
485 775 -1.054994 4.642433 4.268 
495 775 -1.380290 4.344146 2.225 
505 775 -2.198983 4.223752 2.361 
515 775 -2.579249 4.253763 1.341 
525 775 -3.095954 4.086024 1.920 
535 775 -3.840541 4.077515 1.986 
545 775 -4.682147 4.515805 4.141 
555 775 -5.238119 4.150616 3.172 
565 775 -5.722294 3.195752 3.634 
575 775 -5.819676 2.046937 1.267 
585 775 -5.999034 0.301321 6.760 
595 775 -5.643215 0.950812 6.466 
605 775 -4.164685 5.237812 3.968 
615 775 -4.188731 4.570434 1.161 
625 775 -4.303039 2.183259 1.576 
635 775 -4.286206 0.954806 1.916 
645 775 -4.146910 0.802023 2.422 
655 775 -3.939052 1.144523 3.444 
665 775 -4.509806 1.587459 1.136 
675 775 -4.850810 1.433484 1.133 
685 775 -4.375990 1.316998 1.127 
695 775 -4.198258 0.622104 2.128 
705 775 -4.319202 0.685553 4.624 
715 775 -4.866173 1.131553 5.459 
725 775 -4.230343 1.895699 20.229 
735 775 -2.540496 2.816213 1.921 
745 775 -1.458047 4.020817 1.151 
755 775 -3.623132 2.633561 2.655 
765 775 -3.808455 2.984938 4.961 
775 775 -3.709841 2.978237 2.565 
785 775 -4.632945 2.835931 2.245 
795 775 -5.127326 2.378424 1.529 
805 775 -5.385443 2.287757 2.704 
815 775 -5.155740 2.775952 3.106 
825 775 -4.850999 2.983640 19.987 
835 775 -4.871703 2.741004 8.140 
845 775 -5.478411 2.391499 2.297 
855 775 -5.309691 2.450299 2.441 
865 775 -5.125948 2.099146 1.223 
875 775 -5.709995 2.196532 1.455 
885 775 -5.197948 2.645835 1.740 
895 775 -4.637598 2.775744 1.377 
905 775 -4.041697 2.751887 1.169 
915 775 -4.404892 3.008486 2.348 
925 775 -5.226944 2.854066 1.086 
935 775 -5.616818 2.220978 1.614 
945 775 -5.774480 1.589618 5.233 
955 775 -5.506772 1.438645 1.970 
965 775 -5.822100 1.313431 1.759 
975 775 -6.532076 1.549171 1.269 
985 775 -6.161850 2.225781 2.597 
995 775 -6.446644 2.555695 2.813 
1005 775 -7.167838 2.621824 3.496 
1015 775 -7.438871 2.514108 1.668 
1025 775 -6.932840 2.222254 2.887 
1035 775 -6.686868 1.813261 2.924 
1045 775 -6.567523 1.436808 4.269 
1055 775 -6.324914 1.673654 1.015 
1065 775 -6.307837 2.065267 2.384 
1075 775 -6.675589 2.265608 1.608 
1085 775 -6.808158 2.321285 1.902 
1095 775 -5.848144 2.815229 1.138 
1105 775 -3.858440 3.049620 1.116 
1115 775 -1.429443 4.074437 1.210 
1125 775 -1.881654 5.700351 1.129 
1135 775 -3.938274 9.638169 2.102 
1145 775 -1.599286 13.310067 2.402 
1155 775 -0.676338 15.581981 1.258 
1165 775 -0.067527 14.892833 1.256 
1175 775 2.008972 7.780103 1.075 
1185 775 4.086957 -0.186134 1.273 
1195 775 4.460110 -3.580257 1.204 
1205 775 4.833264 -6.974380 1.151 
1215 775 0.471992 -1.977963 1.093 
1225 775 -1.427173 -5.280624 1.362 
1235 775 -1.917342 2.670416 1.056 
1245 775 3.671879 4.681021 1.128 
1255 775 5.341170 3.361328 1.013 
1265 775 5.816607 -5.379604 1.032 
1275 775 2.735570 -4.982660 1.126 
5 765 6.022421 -24.232256 2.041 
15 765 6.369259 -18.418700 2.041 
25 765 6.320336 -11.578699 1.493 
35 765 4.282435 -5.392089 1.178 
45 765 0.836876 -1.897520 2.263 
55 765 -0.582116 -0.758687 1.528 
65 765 0.089332 -1.019203 1.109 
75 765 1.451991 -2.402957 1.444 
85 765 -3.325695 -2.346796 1.149 
95 765 -6.085259 -7.077830 1.091 
105 765 -6.179814 -8.586977 1.008 
115 765 -6.401112 -5.950324 1.139 
125 765 -4.479422 -3.426425 1.773 
135 765 -2.557732 -0.902526 1.033 
145 765 -1.099701 -0.311179 1.095 
155 765 -7.456811 1.830316 4.320 
165 765 -9.114882 3.548878 3.347 
175 765 -7.807111 4.234814 3.036 
185 765 -4.517297 3.920379 2.544 
195 765 -2.123109 3.363887 3.475 
205 765 -2.906996 2.920971 1.375 
215 765 -4.689578 2.656981 1.000 
225 765 -4.130751 2.824198 1.069 
235 765 -3.276389 3.270841 2.741 
245 765 -3.166012 3.329459 2.813 
255 765 -3.263066 3.582487 4.749 
265 765 -3.568122 3.544391 2.063 
275 765 -3.982322 3.438190 1.291 
285 765 -4.517242 3.191992 3.964 
295 765 -4.484017 3.072270 2.589 
305 765 -3.278182 3.400188 2.462 
315 765 -1.870560 4.280340 2.008 
325 765 -1.816200 4.237635 1.598 
335 765 -2.720337 3.457112 1.281 
345 765 -3.730822 4.475546 3.074 
355 765 -4.517533 5.006394 10.224 
365 765 -4.616062 5.099231 9.363 
375 765 -4.714592 5.192068 1.167 
385 765 -3.910717 4.556833 1.140 
395 765 -3.597995 4.049914 3.023 
405 765 -3.267496 4.187706 1.837 
415 765 -2.508225 4.919333 2.077 
425 765 -1.935665 5.116106 2.089 
435 765 -1.306222 5.274945 2.426 
445 765 -0.715840 5.343196 2.581 
455 765 -0.940756 5.695828 2.609 
465 765 -1.246145 5.516369 3.369 
475 765 -0.858318 4.777928 2.904 
485 765 -0.491375 4.266628 2.397 
495 765 -0.509706 3.917363 2.377 
505 765 -0.959793 3.987592 2.224 
515 765 -1.664815 4.200137 1.377 
525 765 -2.311769 4.240908 1.503 
535 765 -3.023517 3.934486 1.667 
545 765 -3.928536 3.626175 3.287 
555 765 -5.123748 3.792928 3.418 
565 765 -6.015966 3.713878 46.470 
575 765 -6.213773 2.960546 1.345 
585 765 -6.387486 0.715430 1.610 
595 765 -5.878753 0.548722 1.357 
605 765 -4.686148 1.285994 1.565 
615 765 -4.619932 2.338413 1.933 
625 765 -4.386762 2.035821 7.478 
635 765 -4.094321 1.406777 2.126 
645 765 -3.873305 0.853080 1.961 
655 765 -4.057759 1.451885 2.574 
665 765 -4.803372 1.649461 1.046 
675 765 -5.440525 1.688003 1.056 
685 765 -5.538699 0.960819 1.872 
695 765 -4.912615 0.781987 2.864 
705 765 -4.744747 0.957516 1.871 
715 765 -4.716384 1.411131 2.544 
725 765 -3.836004 2.151934 3.401 
735 765 -0.623946 4.195514 2.009 
745 765 0.607169 5.256581 3.347 
755 765 -1.659020 3.897554 1.295 
765 765 -3.822685 2.347110 4.611 
775 765 -3.916115 2.248498 3.090 
785 765 -5.011485 2.416516 2.115 
795 765 -5.287050 2.315350 1.391 
805 765 -5.527487 2.504878 3.949 
815 765 -5.737062 3.114629 1.830 
825 765 -5.655085 3.336977 1.667 
835 765 -5.533609 3.045041 1.973 
845 765 -5.543907 2.591008 2.463 
855 765 -5.380325 2.161151 3.001 
865 765 -5.265122 2.269556 3.115 
875 765 -5.653074 2.426848 1.858 
885 765 -5.093046 2.804157 3.034 
895 765 -3.898101 3.156651 1.778 
905 765 -3.948768 3.105927 1.738 
915 765 -4.575743 3.912550 1.197 
925 765 -5.315585 3.283616 1.300 
935 765 -5.853873 2.164821 1.204 
945 765 -5.553854 2.415351 2.689 
955 765 -5.705036 1.854063 2.389 
965 765 -6.060026 1.620163 3.668 
975 765 -6.498707 1.843709 1.037 
985 765 -6.573276 2.247896 1.867 
995 765 -6.132968 2.397637 3.298 
1005 765 -6.258860 2.551959 3.066 
1015 765 -6.392999 2.903424 1.269 
1025 765 -6.294653 3.005552 1.037 
1035 765 -6.180727 2.303942 1.507 
1045 765 -6.189865 1.573916 3.568 
1055 765 -6.028191 1.597119 1.555 
1065 765 -6.127264 1.867096 1.151 
1075 765 -6.661628 1.952458 1.090 
1085 765 -6.793838 2.157293 1.086 
1095 765 -5.994535 2.880466 1.022 
1105 765 -4.851429 2.768263 1.049 
1115 765 -5.088029 3.218921 1.279 
1125 765 -6.670121 4.298288 1.235 
1135 765 -6.449438 6.722122 1.660 
1145 765 -4.153841 11.484402 1.062 
1155 765 -3.199616 12.900937 1.001 
1165 765 -0.814862 15.076446 1.324 
1175 765 2.471627 8.012422 1.134 
1185 765 5.363940 0.965874 1.081 
1195 765 5.254590 -1.061849 1.365 
1205 765 5.145240 -3.089572 1.519 
1215 765 0.447935 -0.321201 1.521 
1225 765 -0.500902 0.989126 1.402 
1235 765 -1.648919 2.216101 1.261 
1245 765 1.610744 2.217320 1.153 
1255 765 5.784705 5.196664 1.433 
1265 765 6.080639 -5.201078 1.189 
1275 765 0.981344 -3.928901 1.344 
5 755 5.034130 -17.898811 1.777 
15 755 5.301938 -12.693670 1.777 
25 755 4.536246 -5.246073 1.038 
35 755 2.553345 -1.953342 1.095 
45 755 0.439439 -0.698879 1.306 
55 755 -0.404479 -0.982292 1.151 
65 755 0.092875 -1.213876 1.297 
75 755 0.013883 -3.526467 1.182 
85 755 -1.408781 -7.334947 1.371 
95 755 -1.800065 -11.242625 1.313 
105 755 -3.148782 -12.019136 1.341 
115 755 -3.487644 -9.609697 1.247 
125 755 -3.152275 -3.081855 1.498 
135 755 -0.676383 -1.727950 2.849 
145 755 -0.765989 -0.819672 1.008 
155 755 -6.436213 1.467610 3.998 
165 755 -7.891903 2.560600 62.091 
175 755 -6.400330 3.293819 2.506 
185 755 -3.392398 3.359162 1.426 
195 755 -3.395401 3.845549 2.629 
205 755 -3.788846 3.867285 1.076 
215 755 -4.299602 2.864708 1.014 
225 755 -4.266442 2.909225 1.483 
235 755 -3.371196 3.088933 20.000 
245 755 -2.914413 3.295596 3.580 
255 755 -2.647889 3.331882 2.854 
265 755 -2.758870 3.214087 3.515 
275 755 -2.471089 3.145240 2.711 
285 755 -3.623847 3.343338 2.272 
295 755 -3.400464 3.314011 1.230 
305 755 -2.797116 3.105207 1.496 
315 755 -0.999868 2.279409 3.610 
325 755 -1.650755 3.224720 2.109 
335 755 -2.183069 3.836752 1.797 
345 755 -2.740690 4.455166 2.287 
355 755 -4.002924 5.119415 2.495 
365 755 -4.623360 5.264451 8.528 
375 755 -5.243795 5.409487 1.638 
385 755 -4.400559 4.681192 1.088 
395 755 -2.951439 4.514012 2.122 
405 755 -2.198878 4.160613 1.364 
415 755 -1.736855 4.424115 1.032 
425 755 -1.528600 4.718450 4.897 
435 755 -1.396792 4.637034 1.124 
445 755 -0.779594 4.788764 1.671 
455 755 -1.193593 5.328345 1.953 
465 755 -1.386121 5.070642 2.373 
475 755 -1.031549 4.190179 1.860 
485 755 -0.361925 3.618530 2.800 
495 755 -0.330538 3.638959 2.338 
505 755 -0.601596 3.947757 3.723 
515 755 -1.044172 4.203214 3.416 
525 755 -1.895983 3.616033 1.026 
535 755 -2.909411 3.569624 2.550 
545 755 -3.403673 2.876550 6.281 
555 755 -5.222669 3.117230 3.054 
565 755 -6.494125 3.066018 1.307 
575 755 -6.873231 2.534673 1.155 
585 755 -6.304923 1.555121 1.191 
595 755 -6.274583 1.216260 1.993 
605 755 -5.854730 1.775522 3.029 
615 755 -4.462186 2.405913 2.289 
625 755 -4.288663 2.063035 3.191 
635 755 -4.001643 1.540100 1.991 
645 755 -3.840642 1.193506 1.697 
655 755 -4.239422 1.356850 1.518 
665 755 -5.194240 1.147329 1.251 
675 755 -5.994536 0.902051 1.446 
685 755 -6.060316 0.606637 1.387 
695 755 -5.307558 0.856794 1.673 
705 755 -5.034830 1.172129 4.716 
715 755 -5.035170 1.298109 2.959 
725 755 -3.685502 2.045222 1.536 
735 755 0.601496 4.883364 2.132 
745 755 -0.017928 5.015904 5.566 
755 755 -0.706866 4.841345 6.113 
765 755 -4.162038 2.629495 1.346 
775 755 -4.904275 2.355322 2.255 
785 755 -5.870150 2.839642 1.724 
795 755 -5.829200 2.993951 2.485 
805 755 -5.788251 3.148260 1.588 
815 755 -5.817018 3.456232 1.847 
825 755 -5.775949 3.479605 2.460 
835 755 -5.775788 3.304001 4.815 
845 755 -5.747360 2.659677 2.987 
855 755 -5.600925 2.313532 2.104 
865 755 -5.404297 2.439965 2.890 
875 755 -5.736985 2.801675 1.745 
885 755 -5.396263 2.839831 2.190 
895 755 -4.102825 2.970333 1.741 
905 755 -3.855840 3.459966 1.497 
915 755 -4.701658 3.930667 1.673 
925 755 -5.750728 2.927911 1.441 
935 755 -6.090927 2.108663 1.617 
945 755 -5.822462 2.378336 1.539 
955 755 -5.867008 2.318767 1.784 
965 755 -6.158103 2.034929 1.834 
975 755 -6.318423 2.091078 1.051 
985 755 -6.316541 2.264829 1.360 
995 755 -6.041442 2.348110 2.185 
1005 755 -5.716685 2.386023 2.552 
1015 755 -5.812282 3.125497 1.177 
1025 755 -6.096603 3.591934 1.612 
1035 755 -6.453717 2.363284 1.576 
1045 755 -6.175890 1.579417 1.667 
1055 755 -6.413224 1.653605 1.242 
1065 755 -6.382708 1.620077 1.787 
1075 755 -6.804539 1.981442 1.526 
1085 755 -6.876554 1.947535 3.267 
1095 755 -6.153438 2.454237 1.924 
1105 755 -5.844418 2.486906 1.456 
1115 755 -6.092399 1.934403 1.429 
1125 755 -7.220773 3.298077 1.367 
1135 755 -8.349147 4.661751 1.215 
1145 755 -7.705675 8.141468 1.339 
1155 755 -5.527841 10.050503 1.331 
1165 755 -3.140459 13.791691 1.038 
1175 755 1.716937 8.144178 1.042 
1185 755 2.907190 4.277373 1.395 
1195 755 8.524374 -1.773450 1.565 
1205 755 3.026239 -1.121057 1.113 
1215 755 -0.066714 -0.497911 1.521 
1225 755 -1.194872 0.883697 1.850 
1235 755 -1.335095 0.899864 1.933 
1245 755 -0.450391 -0.246381 1.414 
1255 755 3.113082 0.674965 1.346 
1265 755 6.722337 -3.874609 1.221 
1275 755 -0.772881 -2.875142 1.227 
5 745 4.670748 -4.756925 1.444 
15 745 4.479256 -0.928472 1.444 
25 745 2.737094 2.692831 1.502 
35 745 0.746050 1.786302 1.062 
45 745 0.138471 0.694291 1.122 
55 745 -0.087245 -0.225622 1.326 
65 745 0.096418 -1.408549 1.194 
75 745 -1.893198 -2.699541 1.186 
85 745 -0.944801 -8.041814 1.200 
95 745 1.028921 -9.376418 1.069 
105 745 -1.189608 -12.366627 1.781 
115 745 -0.801220 -10.483530 1.154 
125 745 -0.688866 -3.158627 1.075 
135 745 -0.145501 -1.356914 1.624 
145 745 -1.057053 -1.087651 2.308 
155 745 -5.331798 0.878499 3.319 
165 745 -6.551794 1.759883 1.615 
175 745 -5.704172 2.360729 1.002 
185 745 -5.010605 4.068793 1.163 
195 745 -4.840650 4.441196 1.267 
205 745 -4.670695 4.813599 1.221 
215 745 -4.600700 3.527583 1.338 
225 745 -4.394961 3.648239 3.532 
235 745 -3.546848 3.531048 2.096 
245 745 -2.860077 3.457602 5.889 
255 745 -2.372605 3.196615 2.608 
265 745 -2.203957 2.955842 2.133 
275 745 -2.075302 2.943163 2.969 
285 745 -2.398773 2.882499 3.635 
295 745 -2.288154 3.156199 1.371 
305 745 -2.488078 2.631613 1.623 
315 745 -1.950613 2.248093 5.920 
325 745 -1.485310 2.211805 5.665 
335 745 -1.636347 3.525244 4.158 
345 745 -1.681773 3.947607 1.899 
355 745 -2.715998 4.718909 2.849 
365 745 -4.173183 5.204205 1.196 
375 745 -4.599714 5.658464 1.098 
385 745 -3.801282 4.765123 1.593 
395 745 -2.475813 4.843786 2.116 
405 745 -1.925471 4.850126 1.975 
415 745 -1.723008 4.612596 1.044 
425 745 -2.011690 4.271669 1.915 
435 745 -1.865804 4.196699 1.339 
445 745 -1.150552 4.156304 1.779 
455 745 -1.698368 4.764214 1.678 
465 745 -1.914583 4.594002 2.410 
475 745 -1.576149 3.978399 2.380 
485 745 -1.090968 3.600503 2.521 
495 745 -1.012334 3.936404 1.635 
505 745 -0.825082 4.148544 2.458 
515 745 -1.091318 4.319934 3.845 
525 745 -1.639263 3.893497 1.484 
535 745 -2.281581 2.549263 1.554 
545 745 -3.148976 2.946144 1.397 
555 745 -4.925678 2.730954 1.177 
565 745 -5.833750 2.918329 1.088 
575 745 -6.661952 2.863887 1.087 
585 745 -6.222360 2.394813 1.703 
595 745 -6.215427 2.081647 69.364 
605 745 -5.822521 2.382375 6.295 
615 745 -4.938202 2.486786 3.127 
625 745 -4.311553 2.383206 4.501 
635 745 -3.852921 1.842966 4.578 
645 745 -3.889553 1.242053 4.032 
655 745 -4.540358 0.781067 2.480 
665 745 -5.150656 0.769188 2.004 
675 745 -5.794823 0.456107 2.964 
685 745 -5.920077 0.513400 2.417 
695 745 -5.737777 0.752027 2.294 
705 745 -5.124420 1.305142 1.941 
715 745 -4.619444 1.165828 9.774 
725 745 -4.200989 1.634322 3.788 
735 745 -2.034363 3.664661 1.048 
745 745 -0.643026 4.775228 2.222 
755 745 -3.085670 3.750856 2.709 
765 745 -5.011085 2.426871 1.502 
775 745 -5.248805 2.590935 2.452 
785 745 -5.944733 3.160417 2.408 
795 745 -5.863306 3.394659 4.708 
805 745 -5.781880 3.628901 1.241 
815 745 -5.896974 3.797836 1.686 
825 745 -5.827651 3.540337 4.144 
835 745 -5.758327 3.282839 3.537 
845 745 -5.746708 2.604312 4.206 
855 745 -5.721257 2.733187 2.471 
865 745 -5.398592 3.101654 2.350 
875 745 -5.476483 3.118326 1.488 
885 745 -5.666761 2.820258 2.453 
895 745 -4.777768 2.570094 1.189 
905 745 -4.455820 3.031652 2.207 
915 745 -5.268115 2.642291 3.170 
925 745 -6.128224 1.705529 3.823 
935 745 -6.256926 1.648494 2.606 
945 745 -6.084486 2.086271 2.052 
955 745 -6.381060 2.314228 3.093 
965 745 -6.408456 2.250670 1.568 
975 745 -5.841531 2.196947 2.333 
985 745 -5.280083 2.229677 1.210 
995 745 -5.078503 2.503529 2.431 
1005 745 -4.886300 2.392289 4.294 
1015 745 -5.276359 3.301618 1.032 
1025 745 -5.657214 3.036638 1.075 
1035 745 -6.009978 2.089835 1.001 
1045 745 -6.065106 1.420619 1.238 
1055 745 -5.945277 1.537524 1.265 
1065 745 -6.372451 1.725497 1.796 
1075 745 -6.947450 2.010426 2.043 
1085 745 -6.856631 1.990278 3.475 
1095 745 -6.187561 2.060047 2.456 
1105 745 -6.026310 2.560424 2.779 
1115 745 -6.134640 2.295407 5.063 
1125 745 -6.779240 3.247415 1.805 
1135 745 -7.968129 4.775752 1.752 
1145 745 -6.762717 8.743759 1.029 
1155 745 -6.473167 11.292268 1.026 
1165 745 -3.301063 12.538706 1.090 
1175 745 -1.591443 10.163130 1.043 
1185 745 0.450441 7.588872 1.935 
1195 745 1.407569 4.637378 1.342 
1205 745 0.907238 0.847457 1.197 
1215 745 -1.197970 -0.353996 1.556 
1225 745 -3.067115 0.730501 1.549 
1235 745 -2.991188 1.207775 1.896 
1245 745 -0.680394 0.600289 1.353 
1255 745 0.077011 -2.875649 1.001 
1265 745 3.064064 -2.478320 1.027 
1275 745 -2.527107 -1.821382 1.079 
5 735 5.646952 -4.112099 1.063 
15 735 5.071960 3.150051 1.063 
25 735 1.552914 2.955656 1.661 
35 735 0.146774 1.385862 1.281 
45 735 -0.594368 1.323258 1.244 
55 735 -0.326393 1.005813 1.461 
65 735 -1.091703 0.386413 1.389 
75 735 -2.539929 -0.651475 1.194 
85 735 1.600724 -4.685510 1.010 
95 735 3.857908 -7.510211 1.111 
105 735 1.608214 -7.274330 1.074 
115 735 0.300504 -5.615231 1.033 
125 735 0.397901 -0.718087 1.177 
135 735 0.385382 -0.985878 1.003 
145 735 -0.268308 -0.513189 1.197 
155 735 -2.392639 0.771619 1.092 
165 735 -3.937601 1.244898 1.156 
175 735 -3.942204 1.548081 1.291 
185 735 -3.651170 3.419222 1.193 
195 735 -3.710438 5.295459 3.409 
205 735 -3.746933 4.819967 2.051 
215 735 -4.239148 4.292445 1.303 
225 735 -4.056102 3.986884 2.176 
235 735 -3.636307 3.634625 1.147 
245 735 -2.725454 3.532591 1.384 
255 735 -2.401081 3.166524 1.786 
265 735 -2.481667 3.019350 3.695 
275 735 -1.952209 2.522034 2.354 
285 735 -1.684908 1.892891 2.141 
295 735 -1.349943 1.667205 2.174 
305 735 -2.054759 1.708004 1.975 
315 735 -3.186106 2.635230 1.782 
325 735 -2.156053 2.400977 1.766 
335 735 -1.906211 3.371697 2.517 
345 735 -1.559793 3.894407 3.325 
355 735 -2.814237 4.349489 1.833 
365 735 -3.012298 5.184183 1.004 
375 735 -3.883126 4.849839 2.511 
385 735 -3.108963 4.652358 1.235 
395 735 -2.368368 4.910586 5.876 
405 735 -2.094651 5.007663 1.548 
415 735 -1.876937 4.533932 1.261 
425 735 -2.731056 3.863583 1.326 
435 735 -3.285848 3.934366 2.692 
445 735 -2.940181 3.837748 1.637 
455 735 -2.334117 4.118685 1.025 
465 735 -2.612715 4.211159 5.906 
475 735 -2.536791 3.978644 4.441 
485 735 -2.236483 3.915525 3.079 
495 735 -1.646012 4.293585 1.849 
505 735 -1.279646 4.630489 1.473 
515 735 -1.184924 4.736355 2.496 
525 735 -1.413712 4.338271 2.179 
535 735 -1.623733 2.889175 1.494 
545 735 -2.647945 3.273910 2.142 
555 735 -3.648736 3.066067 5.677 
565 735 -4.645430 2.707869 4.677 
575 735 -4.890849 2.302942 1.514 
585 735 -5.043789 2.571237 3.299 
595 735 -5.137832 2.406074 5.238 
605 735 -5.256748 2.446375 7.738 
615 735 -5.100370 2.320231 2.917 
625 735 -4.831411 2.127510 1.732 
635 735 -3.869444 1.738995 1.723 
645 735 -3.867279 1.227623 3.086 
655 735 -4.615139 0.672882 1.642 
665 735 -5.179315 0.510936 1.501 
675 735 -5.733430 0.317949 2.338 
685 735 -5.727559 0.593223 1.513 
695 735 -5.616193 0.958478 3.108 
705 735 -4.945665 1.273315 2.553 
715 735 -4.490879 1.241085 3.580 
725 735 -4.457292 1.532204 3.069 
735 735 -4.670221 2.445957 2.593 
745 735 -4.645715 2.854573 1.113 
755 735 -5.464474 2.660368 1.141 
765 735 -5.585102 2.311485 1.009 
775 735 -5.341248 2.531462 4.570 
785 735 -5.686949 3.098208 3.571 
795 735 -5.860898 3.240105 2.131 
805 735 -5.735878 3.253487 1.530 
815 735 -5.658602 3.100845 3.290 
825 735 -5.645539 2.678756 6.445 
835 735 -5.412922 2.244226 1.352 
845 735 -5.630711 2.541462 1.130 
855 735 -5.641206 3.100648 1.357 
865 735 -5.252709 3.129238 2.507 
875 735 -5.058631 3.149119 1.767 
885 735 -5.326972 2.676050 2.140 
895 735 -4.809870 2.540143 1.160 
905 735 -4.803139 2.558654 10.123 
915 735 -5.538920 1.936521 8.052 
925 735 -6.150187 1.161110 2.476 
935 735 -6.422925 1.188324 2.222 
945 735 -6.201894 1.993888 1.210 
955 735 -6.469544 2.474456 3.221 
965 735 -6.501575 2.485719 1.603 
975 735 -5.882057 2.335557 1.005 
985 735 -5.206443 2.337580 1.227 
995 735 -4.767888 2.700563 2.783 
1005 735 -4.660598 2.858742 3.823 
1015 735 -4.786920 2.769040 1.205 
1025 735 -5.125904 2.436909 1.534 
1035 735 -5.401450 1.784464 1.367 
1045 735 -5.383889 1.367055 2.280 
1055 735 -5.477330 1.421442 1.557 