TITLE = "B00385"
VARIABLES = "x", "y", "u", "v", "sn"
ZONE T="Frame 0", I=128, J=80
5 795 0.000000 -0.000000 1.046 
15 795 0.000000 -0.000000 1.046 
25 795 0.000000 -0.000000 1.050 
35 795 0.000000 -0.000000 1.029 
45 795 0.000000 -0.000000 1.407 
55 795 -2.873027 -5.269259 1.253 
65 795 -4.683718 -3.057331 1.369 
75 795 -6.494409 -0.845403 1.105 
85 795 -4.958037 -0.313586 1.168 
95 795 -6.980853 -2.126176 1.384 
105 795 -11.427110 -2.512886 1.078 
115 795 -5.917050 5.251823 1.301 
125 795 -0.406990 13.016532 1.145 
135 795 3.455481 10.909034 1.350 
145 795 0.761233 4.358176 1.079 
155 795 -3.176113 -3.939199 1.201 
165 795 -4.491448 -4.204162 2.961 
175 795 -5.806783 -4.469125 4.980 
185 795 -7.122117 -4.734088 560.971 
195 795 -8.437452 -4.999051 25.089 
205 795 -7.392565 -5.123201 1.793 
215 795 -6.844023 -2.528460 1.658 
225 795 -9.234964 -1.929888 1.155 
235 795 -11.625906 -1.331317 1.170 
245 795 -14.016847 -0.732745 1.392 
255 795 -16.407789 -0.134173 1.023 
265 795 -18.798731 0.464399 1.097 
275 795 -18.039211 6.752277 1.042 
285 795 -17.534644 5.341264 1.542 
295 795 -5.089970 -5.121893 2.332 
305 795 -6.307479 -4.764016 1.373 
315 795 -8.089882 -3.329352 1.381 
325 795 -8.154055 -3.754248 1.772 
335 795 -7.244462 -4.967191 1.555 
345 795 -7.200464 -5.107253 3.821 
355 795 -7.156465 -5.247316 3.977 
365 795 -6.760778 -5.219608 1.629 
375 795 -6.808223 -5.091338 2.022 
385 795 -6.980023 -4.888600 1.597 
395 795 -7.171271 -4.448025 2.101 
405 795 -6.700560 -4.305242 1.296 
415 795 -6.319791 -4.511463 3.398 
425 795 -6.401684 -5.138166 1.722 
435 795 -8.778461 -5.072182 1.044 
445 795 -8.633463 -5.159874 1.153 
455 795 -7.948995 -5.103259 1.880 
465 795 -6.968479 -4.558517 4.411 
475 795 -6.344379 -4.031504 5.718 
485 795 -5.570597 -3.857823 2.344 
495 795 -5.221676 -3.723181 1.414 
505 795 -4.896529 -4.112692 2.660 
515 795 -4.387405 -4.749548 1.839 
525 795 -3.512666 -5.121177 1.882 
535 795 -3.290555 -4.696664 2.355 
545 795 -3.533707 -4.661412 3.467 
555 795 -3.559955 -6.142479 1.128 
565 795 -3.236805 -9.819081 1.864 
575 795 -3.173957 -13.337463 2.295 
585 795 -4.097288 -12.990433 2.393 
595 795 -5.020618 -12.643403 1.719 
605 795 -5.516552 -8.455759 1.073 
615 795 -5.272202 -4.612933 2.289 
625 795 -5.341890 -3.957458 1.470 
635 795 -5.961663 -4.232726 1.063 
645 795 -5.916130 -4.205080 4.204 
655 795 -5.747955 -4.802158 4.489 
665 795 -5.693226 -5.346845 1.947 
675 795 -5.299347 -5.165102 1.967 
685 795 -4.704378 -5.245520 1.721 
695 795 -4.918672 -5.320602 2.144 
705 795 -5.132966 -5.395685 1.939 
715 795 -5.414828 -5.558081 1.932 
725 795 -5.596965 -6.537691 1.765 
735 795 -5.685274 -6.530522 2.685 
745 795 -5.773583 -6.523354 2.650 
755 795 -5.903115 -6.006399 2.811 
765 795 -5.991422 -5.577979 3.416 
775 795 -5.864724 -5.407477 1.994 
785 795 -5.506823 -5.499047 2.355 
795 795 -5.082207 -5.834928 2.839 
805 795 -4.504232 -6.074328 2.038 
815 795 -4.134271 -5.566782 1.300 
825 795 -3.929469 -3.612562 7.491 
835 795 -3.840373 -3.922234 1.787 
845 795 -3.917682 -4.031237 1.228 
855 795 -4.347495 -4.065956 1.640 
865 795 -5.031062 -4.069926 1.395 
875 795 -5.004132 -4.201773 1.384 
885 795 -4.902592 -4.213554 2.326 
895 795 -5.044114 -4.114927 1.979 
905 795 -4.939791 -3.921548 3.091 
915 795 -4.908812 -3.918116 2.641 
925 795 -5.351724 -4.625571 1.954 
935 795 -6.177561 -5.699256 1.884 
945 795 -5.777598 -4.628777 1.038 
955 795 -5.377635 -3.558299 1.106 
965 795 -4.718184 -2.545063 3.837 
975 795 -4.754359 -2.713531 2.275 
985 795 -4.790533 -2.882000 1.354 
995 795 -5.607853 -2.715304 1.109 
1005 795 -6.529953 -2.377591 6.310 
1015 795 -6.944437 -2.365400 14.190 
1025 795 -7.358921 -2.353210 138.808 
1035 795 -1.873996 -15.048061 1.163 
1045 795 -15.332696 -11.758824 1.454 
1055 795 -6.640892 -2.695588 1.679 
1065 795 -5.979117 -2.961984 1.687 
1075 795 -5.576703 -3.331069 1.657 
1085 795 -5.420500 -3.417905 1.763 
1095 795 -6.150927 -4.261559 1.414 
1105 795 -6.822998 -5.680892 1.141 
1115 795 -8.401452 -10.260208 1.090 
1125 795 -12.144242 -9.318154 1.034 
1135 795 -15.887032 -8.376100 1.011 
1145 795 -18.566543 -0.474982 1.094 
1155 795 -16.937418 1.857029 1.003 
1165 795 -15.308292 4.189040 1.082 
1175 795 -13.679167 6.521051 1.072 
1185 795 -9.980063 -2.338282 1.357 
1195 795 -7.813923 -8.858986 1.426 
1205 795 -5.063763 -13.740513 1.429 
1215 795 -1.039077 -14.702085 1.037 
1225 795 2.985608 -15.663657 1.011 
1235 795 3.975879 -7.120528 1.207 
1245 795 4.966149 1.422601 1.340 
1255 795 -0.556648 -1.655726 1.025 
1265 795 -6.079446 -4.734053 1.013 
1275 795 -7.723637 -5.211594 1.137 
5 785 -14.164468 -4.824953 1.046 
15 785 -13.404403 -4.355076 1.046 
25 785 -8.133500 -10.085023 1.050 
35 785 -7.338584 -7.746543 1.029 
45 785 -8.837572 -7.713955 1.407 
55 785 -9.715580 -7.288759 1.253 
65 785 -8.609076 -3.730946 1.369 
75 785 -6.126106 0.018367 1.105 
85 785 -3.318849 0.850964 1.168 
95 785 1.335697 0.689814 1.384 
105 785 -10.138567 -1.412954 1.078 
115 785 -4.016339 5.874278 1.301 
125 785 2.105890 13.161511 1.145 
135 785 2.063538 9.223085 1.350 
145 785 2.021186 5.284659 1.079 
155 785 -1.297197 -2.025008 1.201 
165 785 -5.260811 -6.260433 2.961 
175 785 -6.758428 -5.910582 4.980 
185 785 -8.256046 -5.560732 560.971 
195 785 -8.196476 -4.996032 25.089 
205 785 -7.172063 -4.616202 1.793 
215 785 -6.316986 -3.787439 1.658 
225 785 -4.640119 -3.168039 1.155 
235 785 -1.728243 0.171400 1.170 
245 785 -13.994278 1.335747 1.392 
255 785 -12.293562 0.287124 1.023 
265 785 -13.089464 -1.270636 1.097 
275 785 -16.050439 4.264132 1.042 
285 785 -11.923313 0.379048 1.542 
295 785 -5.341356 -5.045500 2.332 
305 785 -6.515227 -4.727498 1.373 
315 785 -8.036198 -3.402928 1.381 
325 785 -8.227254 -3.792109 1.772 
335 785 -7.459390 -4.926862 1.555 
345 785 -7.333046 -5.108961 3.821 
355 785 -7.295209 -4.988124 3.977 
365 785 -6.965521 -5.010442 1.629 
375 785 -6.994952 -4.945495 2.022 
385 785 -7.044167 -4.723678 1.597 
395 785 -7.105794 -4.350147 2.101 
405 785 -6.727550 -4.219663 1.296 
415 785 -6.381377 -4.456885 3.398 
425 785 -6.327100 -5.158321 1.722 
435 785 -8.497659 -5.183152 1.044 
445 785 -8.388234 -5.359289 1.153 
455 785 -7.828420 -5.505482 1.880 
465 785 -6.969047 -5.121543 4.411 
475 785 -6.419446 -4.640601 5.718 
485 785 -5.687224 -4.350645 2.344 
495 785 -5.387211 -4.039082 1.414 
505 785 -5.038550 -4.408770 2.660 
515 785 -4.557158 -5.034643 1.839 
525 785 -3.652464 -5.268561 1.882 
535 785 -3.466549 -4.838960 2.355 
545 785 -3.717951 -4.664232 3.467 
555 785 -3.806609 -5.985456 1.128 
565 785 -3.485833 -9.126852 1.864 
575 785 -3.327457 -12.629768 2.295 
585 785 -4.131547 -13.529302 2.393 
595 785 -5.622578 -11.901705 1.719 
605 785 -6.482939 -7.983610 1.073 
615 785 -6.518761 -4.791976 2.289 
625 785 -6.153619 -3.902750 1.470 
635 785 -6.501235 -4.243768 1.063 
645 785 -6.248276 -4.177878 4.204 
655 785 -6.055095 -4.753325 4.489 
665 785 -6.011732 -5.367530 1.947 
675 785 -5.623684 -5.178287 1.967 
685 785 -5.117512 -5.357675 1.721 
695 785 -5.093462 -5.702165 2.144 
705 785 -5.435767 -5.529959 1.939 
715 785 -5.566270 -5.533684 1.932 
725 785 -5.752117 -6.471119 1.765 
735 785 -5.661466 -6.707452 2.685 
745 785 -5.805939 -6.443472 2.650 
755 785 -5.869013 -5.928737 2.811 
765 785 -5.989364 -5.546352 3.416 
775 785 -5.892752 -5.378425 1.994 
785 785 -5.486177 -5.449166 2.355 
795 785 -5.081659 -5.708665 2.839 
805 785 -4.562600 -5.898899 2.038 
815 785 -4.232727 -5.420864 1.300 
825 785 -4.169434 -4.281076 7.491 
835 785 -3.934609 -3.968224 1.787 
845 785 -4.001124 -4.064066 1.228 
855 785 -4.340009 -4.134584 1.640 
865 785 -4.976907 -4.139709 1.395 
875 785 -4.957539 -4.250364 1.384 
885 785 -4.878968 -4.197242 2.326 
895 785 -4.975090 -4.137994 1.979 
905 785 -4.832112 -4.006299 3.091 
915 785 -4.779518 -4.035060 2.641 
925 785 -5.077363 -4.529750 1.954 
935 785 -5.515892 -5.192077 1.884 
945 785 -6.066689 -5.841839 1.038 
955 785 -4.816241 -3.545717 1.106 
965 785 -4.079896 -3.108252 3.837 
975 785 -4.497337 -2.848770 2.275 
985 785 -4.584599 -3.097721 1.354 
995 785 -5.277888 -2.767836 1.109 
1005 785 -6.190392 -2.450258 6.310 
1015 785 -6.821935 -2.677568 14.190 
1025 785 -6.977341 -3.457256 138.808 
1035 785 -4.089517 -10.483749 1.163 
1045 785 -9.353261 -7.063870 1.454 
1055 785 -6.422051 -3.513349 1.679 
1065 785 -5.623642 -3.321367 1.687 
1075 785 -5.386941 -3.064448 1.657 
1085 785 -5.384132 -2.911820 1.763 
1095 785 -5.744123 -3.068179 1.414 
1105 785 -6.465165 -4.408339 1.141 
1115 785 -7.885410 -8.684236 1.090 
1125 785 -10.454135 -9.419151 1.034 
1135 785 -13.022861 -10.154065 1.011 
1145 785 -16.792481 -3.362667 1.094 
1155 785 -16.940330 1.021872 1.003 
1165 785 -14.507279 3.465392 1.082 
1175 785 -11.338941 3.219519 1.072 
1185 785 -7.174814 -2.783488 1.357 
1195 785 -4.446664 -7.974745 1.426 
1205 785 -1.244739 -12.836343 1.429 
1215 785 2.434331 -13.688422 1.037 
1225 785 6.113401 -14.540501 1.011 
1235 785 4.950468 -5.967936 1.207 
1245 785 5.146530 1.968699 1.340 
1255 785 4.597732 3.645823 1.025 
1265 785 -8.474457 -4.391728 1.013 
1275 785 -8.690884 -3.798636 1.137 
5 775 -23.484063 -12.015651 1.153 
15 775 -22.554375 -10.539242 1.153 
25 775 -18.336084 -14.547827 1.066 
35 775 -16.004926 -10.921880 1.634 
45 775 -17.676799 -7.677957 1.053 
55 775 -13.224023 -4.898876 1.094 
65 775 -9.617241 -3.058674 1.468 
75 775 -5.757804 0.882138 1.326 
85 775 -1.211176 2.822174 1.165 
95 775 0.685579 2.492258 1.504 
105 775 0.348425 0.383624 1.149 
115 775 1.020264 4.070253 1.013 
125 775 1.692102 7.756883 1.366 
135 775 2.219890 5.631762 1.168 
145 775 2.747678 3.506642 1.444 
155 775 -0.511398 -1.613804 1.780 
165 775 -4.908268 -4.384093 1.101 
175 775 -7.315163 -6.073845 7.716 
185 775 -8.226165 -5.950374 137.043 
195 775 -7.956675 -5.337817 1.354 
205 775 -6.983818 -4.409726 1.716 
215 775 -6.203069 -4.481678 1.357 
225 775 -6.851092 -5.489438 1.526 
235 775 -7.816602 -4.428811 1.827 
245 775 -8.492402 -3.438392 1.175 
255 775 -7.502266 -3.622083 1.026 
265 775 -7.380197 -3.005671 1.173 
275 775 -11.255087 -0.423000 1.506 
285 775 -5.887138 -4.862612 1.370 
295 775 -5.420359 -5.181046 3.227 
305 775 -6.419124 -4.603058 1.020 
315 775 -7.699765 -3.522476 2.969 
325 775 -8.055920 -3.821429 2.635 
335 775 -7.738799 -4.904717 1.303 
345 775 -7.766024 -5.097858 2.828 
355 775 -7.653733 -4.567669 1.830 
365 775 -7.397853 -4.647775 2.526 
375 775 -7.284628 -4.655354 3.934 
385 775 -6.955173 -4.464596 1.817 
395 775 -7.017371 -4.034327 1.314 
405 775 -6.606553 -4.068095 1.177 
415 775 -6.628676 -4.505937 2.206 
425 775 -6.738123 -5.079812 1.124 
435 775 -7.798393 -5.012872 1.213 
445 775 -8.115921 -5.520813 2.388 
455 775 -7.446759 -6.030120 2.066 
465 775 -7.199897 -6.199036 3.046 
475 775 -6.715098 -5.587443 1.921 
485 775 -6.011008 -5.191304 2.435 
495 775 -5.717402 -4.837204 1.274 
505 775 -5.437859 -4.733196 3.333 
515 775 -5.051586 -5.777967 4.359 
525 775 -4.418160 -5.626761 2.789 
535 775 -3.826229 -5.041967 1.569 
545 775 -4.365095 -4.675017 1.896 
555 775 -4.686418 -4.835334 1.867 
565 775 -4.269816 -7.790885 1.051 
575 775 -4.004833 -10.976840 4.127 
585 775 -4.823251 -11.874986 4.195 
595 775 -6.381536 -10.205286 2.025 
605 775 -7.428865 -7.113854 20.000 
615 775 -7.686330 -4.443157 4.319 
625 775 -7.528893 -3.742434 1.388 
635 775 -7.067865 -3.619831 2.114 
645 775 -6.670180 -3.806836 2.973 
655 775 -6.345128 -4.280534 3.088 
665 775 -6.265833 -4.843389 2.372 
675 775 -6.044630 -5.296664 1.883 
685 775 -5.816781 -5.700856 1.167 
695 775 -5.758423 -6.017117 1.668 
705 775 -5.759685 -5.780282 3.212 
715 775 -5.731627 -5.721661 3.445 
725 775 -5.775447 -6.232715 2.166 
735 775 -5.886655 -6.329486 7.226 
745 775 -5.822407 -6.171726 5.444 
755 775 -5.838176 -5.838374 2.112 
765 775 -5.981629 -5.528657 3.545 
775 775 -6.068190 -5.367264 1.757 
785 775 -5.594742 -5.528138 2.291 
795 775 -5.112448 -5.706618 3.647 
805 775 -4.869013 -5.587412 2.998 
815 775 -4.619562 -5.184143 2.338 
825 775 -4.503184 -4.939090 2.845 
835 775 -4.260972 -4.765423 3.061 
845 775 -4.146961 -4.446713 5.961 
855 775 -4.556893 -4.341552 1.696 
865 775 -4.921775 -4.183888 2.278 
875 775 -4.834288 -4.672943 2.031 
885 775 -4.961344 -4.324113 1.024 
895 775 -4.873472 -4.304247 1.061 
905 775 -4.700303 -4.191969 3.636 
915 775 -4.444800 -4.240956 8.805 
925 775 -4.755598 -4.502398 1.289 
935 775 -4.854223 -4.684898 1.517 
945 775 -4.448430 -4.319490 1.360 
955 775 -4.059544 -3.427738 1.054 
965 775 -3.441608 -3.671441 1.899 
975 775 -4.424022 -3.441767 2.605 
985 775 -4.407419 -3.319264 2.633 
995 775 -4.701052 -2.851681 2.100 
1005 775 -5.611443 -2.657218 5.158 
1015 775 -6.318750 -2.684607 39.697 
1025 775 -6.846955 -3.135319 5.261 
1035 775 -6.305037 -5.919437 1.081 
1045 775 -6.234741 -4.296708 1.132 
1055 775 -6.164444 -2.673980 1.023 
1065 775 -5.561289 -3.426719 1.668 
1075 775 -5.004731 -2.710960 1.273 
1085 775 -5.237479 -2.879532 1.254 
1095 775 -5.812427 -2.461862 1.473 
1105 775 -6.025400 -3.193958 1.046 
1115 775 -5.420895 -1.625622 1.519 
1125 775 -9.182458 -8.658408 1.023 
1135 775 -10.231734 -7.840313 1.013 
1145 775 -14.312282 -4.577993 1.558 
1155 775 -14.027486 -2.767983 1.347 
1165 775 -12.309319 -0.621892 1.772 
1175 775 -9.294247 0.446503 1.260 
1185 775 -8.859088 -3.109090 1.368 
1195 775 -4.513698 -8.627728 1.068 
1205 775 0.489472 -10.576775 1.430 
1215 775 6.666375 -13.044668 1.782 
1225 775 8.150809 -12.214831 1.072 
1235 775 6.744022 -4.358890 1.089 
1245 775 5.411277 2.824127 1.224 
1255 775 0.732552 3.017552 1.121 
1265 775 -6.904491 -1.975987 1.061 
1275 775 -9.658131 -2.385678 1.083 
5 765 -27.074908 -25.042049 1.251 
15 765 -25.909640 -22.980807 1.251 
25 765 -24.424157 -17.342424 1.307 
35 765 -21.340828 -13.177713 1.004 
45 765 -20.843873 -10.005989 1.024 
55 765 -18.643429 -5.022303 1.567 
65 765 -14.805734 -1.258902 1.023 
75 765 -9.905562 2.142712 1.523 
85 765 -3.282394 4.196761 1.492 
95 765 -0.289015 4.011362 1.657 
105 765 0.062034 2.674173 3.045 
115 765 0.261108 2.152666 1.808 
125 765 0.159699 1.859422 2.289 
135 765 -0.815040 -0.524396 1.106 
145 765 -1.659524 1.042132 1.322 
155 765 -4.492827 -1.437775 1.258 
165 765 -6.371289 -4.874182 5.272 
175 765 -7.650059 -6.433577 3.212 
185 765 -8.197617 -6.467053 2.773 
195 765 -7.552412 -5.433500 5.002 
205 765 -7.010096 -4.321619 2.229 
215 765 -6.662532 -4.630353 1.580 
225 765 -6.927662 -5.196468 1.147 
235 765 -6.878914 -5.605916 3.066 
245 765 -6.782198 -4.942365 1.310 
255 765 -6.126919 -5.117131 1.369 
265 765 -6.173321 -4.936628 1.251 
275 765 -6.459735 -5.110132 1.529 
285 765 -6.097145 -4.972140 4.517 
295 765 -5.499363 -5.316592 6.168 
305 765 -6.443037 -4.834346 1.753 
315 765 -7.527090 -3.963361 1.470 
325 765 -8.191368 -4.199977 3.121 
335 765 -8.302903 -4.784369 2.040 
345 765 -7.668475 -4.651587 2.900 
355 765 -7.557235 -4.294785 2.794 
365 765 -7.565770 -4.329999 2.577 
375 765 -7.574305 -4.365213 1.206 
385 765 -6.796455 -4.300917 33.183 
395 765 -6.626236 -4.044146 25.461 
405 765 -6.662486 -4.066990 5.109 
415 765 -6.856538 -4.475643 2.090 
425 765 -7.251401 -4.899444 3.024 
435 765 -7.230660 -4.733391 5.262 
445 765 -7.172141 -5.305248 3.570 
455 765 -7.126222 -6.372866 1.749 
465 765 -6.928600 -6.638479 1.177 
475 765 -6.674586 -6.530194 1.686 
485 765 -6.380346 -6.031415 1.646 
495 765 -6.159571 -5.696016 1.879 
505 765 -5.906300 -5.659870 1.696 
515 765 -5.266535 -5.999473 3.158 
525 765 -4.667231 -5.710555 5.983 
535 765 -4.215236 -5.249048 1.265 
545 765 -5.033062 -4.810743 2.075 
555 765 -5.297482 -4.674745 2.503 
565 765 -5.206167 -6.073449 2.160 
575 765 -4.988689 -8.503377 2.496 
585 765 -5.551705 -9.377408 4.341 
595 765 -6.977431 -7.866350 3.545 
605 765 -8.035803 -5.778442 10.856 
615 765 -7.669169 -4.075854 4.962 
625 765 -7.585066 -3.311540 2.777 
635 765 -6.954116 -3.186807 10.055 
645 765 -6.728214 -3.374507 7.311 
655 765 -6.643013 -3.907626 1.861 
665 765 -6.522551 -4.534126 4.705 
675 765 -6.383859 -5.226679 2.163 
685 765 -6.400256 -5.739715 1.012 
695 765 -6.439035 -6.067331 1.469 
705 765 -6.097699 -5.531360 2.878 
715 765 -5.901175 -5.570612 5.329 
725 765 -5.949243 -5.642207 3.202 
735 765 -6.060191 -5.908821 4.360 
745 765 -5.779619 -5.873865 6.749 
755 765 -5.678510 -5.723961 2.998 
765 765 -5.936490 -5.508059 4.220 
775 765 -6.091100 -5.412584 3.087 
785 765 -5.490845 -5.307498 1.200 
795 765 -4.990433 -5.280780 3.381 
805 765 -5.183935 -5.046181 2.353 
815 765 -5.047660 -4.636802 1.614 
825 765 -4.717238 -4.836809 26.957 
835 765 -4.404009 -4.864660 4.022 
845 765 -4.233569 -4.734501 1.899 
855 765 -4.603526 -4.795288 1.893 
865 765 -4.751331 -4.958633 3.283 
875 765 -4.931493 -4.857282 3.349 
885 765 -4.954597 -4.544333 1.115 
895 765 -4.744095 -4.550086 1.704 
905 765 -4.499793 -4.784792 5.592 
915 765 -4.377602 -4.631557 2.891 
925 765 -4.569084 -4.688017 1.230 
935 765 -4.591396 -4.325677 1.447 
945 765 -4.081258 -3.735596 1.467 
955 765 -4.071774 -3.532364 1.119 
965 765 -3.433430 -3.782479 1.206 
975 765 -3.763670 -3.652972 1.455 
985 765 -4.226512 -3.152904 2.464 
995 765 -4.378350 -2.901189 4.097 
1005 765 -4.652561 -3.128852 1.772 
1015 765 -5.686079 -2.947176 1.238 
1025 765 -6.434617 -3.105428 1.180 
1035 765 -5.962168 -4.725867 1.773 
1045 765 -5.055593 -3.004281 2.446 
1055 765 -5.402669 -1.644874 1.158 
1065 765 -4.541804 -2.362313 1.425 
1075 765 -4.558313 -2.258671 1.556 
1085 765 -5.534422 -1.892967 2.083 
1095 765 -5.880731 -1.855546 2.587 
1105 765 -5.585636 -1.979578 5.455 
1115 765 -6.442581 -3.302575 1.462 
1125 765 -7.511965 -5.119257 2.306 
1135 765 -9.016262 -5.398455 1.121 
1145 765 -10.256745 -3.256159 1.459 
1155 765 -11.409732 -2.294389 1.825 
1165 765 -9.948643 -1.224361 1.375 
1175 765 -7.572994 -0.042994 1.045 
1185 765 -10.818129 -3.009241 1.025 
1195 765 -6.097696 -8.562560 1.032 
1205 765 0.201004 -8.848350 1.171 
1215 765 6.918015 -10.690747 1.070 
1225 765 7.893318 -7.359010 1.847 
1235 765 9.153678 -2.430273 1.130 
1245 765 1.096939 2.367278 1.204 
1255 765 -3.132628 2.389282 1.323 
1265 765 -5.401361 -0.058337 1.023 
1275 765 -9.279305 0.382038 1.103 
5 755 -22.393349 -22.034017 1.153 
15 755 -25.820282 -21.904781 1.153 
25 755 -21.876019 -20.347983 1.287 
35 755 -20.211313 -16.397825 1.078 
45 755 -20.525368 -12.025357 1.224 
55 755 -21.329907 -5.946584 1.065 
65 755 -18.224444 -1.031363 1.324 
75 755 -14.450366 0.475272 1.204 
85 755 -10.676287 1.981906 1.679 
95 755 -4.287073 4.290400 1.068 
105 755 -0.224357 4.964722 1.245 
115 755 -2.736319 1.987508 1.323 
125 755 -0.880242 1.333636 1.939 
135 755 -2.687837 -1.352150 1.030 
145 755 -6.066725 -1.422377 1.151 
155 755 -6.812387 -3.269540 1.176 
165 755 -7.457326 -5.083618 1.561 
175 755 -8.430568 -6.348579 1.595 
185 755 -8.380449 -6.281969 1.148 
195 755 -7.525467 -5.586718 3.218 
205 755 -6.987449 -4.930148 1.837 
215 755 -7.121994 -4.779028 1.031 
225 755 -7.004232 -4.903497 1.228 
235 755 -6.849687 -5.134641 1.587 
245 755 -6.804472 -4.948826 1.272 
255 755 -6.622057 -4.800297 1.145 
265 755 -6.439809 -5.164685 1.913 
275 755 -6.229204 -5.651608 2.273 
285 755 -5.821821 -5.348660 3.646 
295 755 -5.791653 -5.314913 3.961 
305 755 -6.758427 -4.798620 3.301 
315 755 -7.521293 -4.556632 1.751 
325 755 -7.949987 -4.388454 1.756 
335 755 -8.086786 -4.699153 2.060 
345 755 -7.408309 -4.319863 2.131 
355 755 -7.319635 -4.182645 2.999 
365 755 -7.375180 -4.257617 1.186 
375 755 -7.430724 -4.332588 1.042 
385 755 -6.877021 -4.371942 64.307 
395 755 -6.767528 -4.216996 235.960 
405 755 -6.772352 -4.087842 9.653 
415 755 -7.325464 -4.358140 1.550 
425 755 -7.310083 -4.693327 3.520 
435 755 -7.292022 -4.777893 10.893 
445 755 -7.051183 -4.803909 3.726 
455 755 -7.073138 -5.956663 1.170 
465 755 -6.761288 -6.683269 1.333 
475 755 -6.925450 -6.657668 1.903 
485 755 -6.784076 -6.340939 2.984 
495 755 -6.628901 -6.114674 6.602 
505 755 -6.385185 -6.231743 2.460 
515 755 -5.565569 -5.945791 2.584 
525 755 -4.991259 -5.594990 2.367 
535 755 -4.901930 -5.265960 1.598 
545 755 -5.280575 -4.840010 3.026 
555 755 -5.908546 -4.514155 2.175 
565 755 -5.734696 -4.412940 1.519 
575 755 -5.574372 -4.825408 1.738 
585 755 -5.852546 -6.036151 2.254 
595 755 -6.774263 -5.852274 20.000 
605 755 -7.527059 -4.693664 4.105 
615 755 -7.652008 -3.708552 2.489 
625 755 -7.325903 -3.252101 1.947 
635 755 -6.896666 -3.109826 5.387 
645 755 -6.781544 -3.370417 2.875 
655 755 -7.005695 -3.780809 1.121 
665 755 -6.428965 -4.247072 2.668 
675 755 -6.426633 -4.854773 3.299 
685 755 -6.511339 -4.971678 1.289 
695 755 -6.550294 -4.985464 1.986 
705 755 -6.409021 -4.890238 3.057 
715 755 -5.956786 -5.107446 8.878 
725 755 -6.025369 -5.040322 2.522 
735 755 -6.012169 -5.329245 3.446 
745 755 -5.575538 -5.582641 2.389 
755 755 -5.182805 -5.590286 2.779 
765 755 -5.715392 -5.525095 2.118 
775 755 -5.838580 -5.363195 1.738 
785 755 -5.033450 -5.055078 2.444 
795 755 -4.634163 -5.054258 2.595 
805 755 -4.859382 -4.904842 1.113 
815 755 -4.840845 -4.472000 1.047 
825 755 -4.750493 -4.433351 1.753 
835 755 -4.171013 -4.637504 2.310 
845 755 -4.181504 -4.819301 3.321 
855 755 -4.640439 -5.126119 2.906 
865 755 -4.698505 -5.295707 3.202 
875 755 -4.757287 -5.117716 3.101 
885 755 -4.683658 -4.779142 1.211 
895 755 -4.335600 -4.794786 1.787 
905 755 -4.092056 -4.908761 3.470 
915 755 -4.358313 -5.083431 1.872 
925 755 -4.531802 -5.025605 1.279 
935 755 -4.727883 -4.600148 2.815 
945 755 -4.407140 -3.883778 2.036 
955 755 -4.084003 -3.636989 1.436 
965 755 -3.700581 -3.705504 44.745 
975 755 -3.452186 -3.697028 5.870 
985 755 -4.010601 -3.347972 1.913 
995 755 -4.435767 -3.270110 4.511 
1005 755 -4.767811 -3.749906 2.511 
1015 755 -5.026309 -3.967277 1.531 
1025 755 -5.701714 -3.884048 1.317 
1035 755 -5.619299 -3.532297 1.635 
1045 755 -3.459074 -1.448533 3.329 
1055 755 -3.216387 -1.352469 8.350 
1065 755 -3.320732 -1.534450 3.748 
1075 755 -3.922025 -1.717105 2.438 
1085 755 -4.064883 -1.508540 1.588 
1095 755 -4.733798 -1.117831 2.069 
1105 755 -5.059081 -0.965116 4.999 
1115 755 -6.003366 -1.825468 1.192 
1125 755 -6.903830 -3.468322 2.412 
1135 755 -7.309485 -3.557592 1.375 
1145 755 -7.607933 -2.594004 6.534 
1155 755 -7.634640 -1.357455 2.456 
1165 755 -6.597721 -0.697959 1.027 
1175 755 -5.851741 -0.532491 1.341 
1185 755 -3.839035 -3.278237 1.034 
1195 755 -3.221830 -7.058967 1.764 
1205 755 -1.035096 -7.130204 1.050 
1215 755 4.615879 -6.297034 1.203 
1225 755 7.635827 -2.503190 1.720 
1235 755 1.087285 -0.291170 1.022 
1245 755 -4.357189 -0.006848 1.280 
1255 755 -7.451123 -0.805310 1.125 
1265 755 -10.010206 1.381036 1.224 
1275 755 -14.937641 2.038269 1.260 
5 745 -17.711790 -19.025985 1.030 
15 745 -15.784100 -18.825660 1.030 
25 745 -12.502553 -17.873290 1.559 
35 745 -12.670149 -15.417697 2.357 
45 745 -17.580309 -12.353797 1.106 
55 745 -21.026562 -7.239808 1.078 
65 745 -18.424860 -7.783815 1.093 
75 745 -10.792232 -1.737164 1.072 
85 745 -6.350955 2.618353 1.213 
95 745 -5.101029 5.282737 1.108 
105 745 -5.417387 3.552543 2.255 
115 745 -5.733745 1.822349 1.451 
125 745 -10.117612 0.922802 1.086 
135 745 -4.125117 -1.806156 1.214 
145 745 -7.458325 -2.555084 1.172 
155 745 -8.267489 -4.245264 1.013 
165 745 -8.603058 -5.389263 2.950 
175 745 -8.729407 -6.238694 1.398 
185 745 -8.230196 -6.242891 1.207 
195 745 -7.646460 -5.999292 2.066 
205 745 -6.794971 -5.486061 1.739 
215 745 -7.096643 -4.729074 1.815 
225 745 -7.133735 -4.839069 1.589 
235 745 -6.761935 -4.737892 1.417 
245 745 -6.441680 -4.649335 1.078 
255 745 -6.541511 -5.040020 2.024 
265 745 -6.932774 -5.715530 2.507 
275 745 -6.342808 -6.087782 3.001 
285 745 -5.906455 -5.822990 2.336 
295 745 -6.056293 -5.365789 2.171 
305 745 -6.565962 -5.309133 2.798 
315 745 -7.469103 -5.104683 2.185 
325 745 -7.708606 -4.576930 1.051 
335 745 -7.471563 -4.209954 1.916 
345 745 -7.492525 -4.217399 2.592 
355 745 -7.346161 -4.561343 3.696 
365 745 -7.171353 -4.912540 3.284 
375 745 -6.996545 -5.263737 1.940 
385 745 -7.167267 -4.888318 20.000 
395 745 -6.966831 -4.587706 20.575 
405 745 -6.949142 -4.305171 6.290 
415 745 -7.040507 -4.230147 1.372 
425 745 -7.196945 -4.526271 4.185 
435 745 -7.353383 -4.822396 2.480 
445 745 -7.227844 -4.995598 2.937 
455 745 -7.173686 -5.576990 3.296 
465 745 -7.089437 -6.529549 3.244 
475 745 -7.116707 -6.896311 4.806 
485 745 -7.131877 -6.347102 4.446 
495 745 -7.107021 -6.176059 5.434 
505 745 -6.724445 -5.756819 3.465 
515 745 -6.095856 -5.463038 4.417 
525 745 -5.691943 -5.002815 1.241 
535 745 -5.805614 -5.032810 1.505 
545 745 -6.073046 -4.805094 2.247 
555 745 -6.562231 -4.561554 1.636 
565 745 -6.061277 -4.433751 1.083 
575 745 -5.872489 -4.340087 1.868 
585 745 -5.899837 -4.767707 3.049 
595 745 -6.372554 -4.784671 1.251 
605 745 -7.206715 -4.057201 1.627 
615 745 -7.108580 -3.587937 2.157 
625 745 -7.235019 -3.352925 2.286 
635 745 -6.837086 -3.299988 1.735 
645 745 -6.904216 -3.577364 1.960 
655 745 -6.859972 -3.676226 1.018 
665 745 -6.355913 -3.844535 1.238 
675 745 -6.245277 -4.155090 2.792 
685 745 -7.321648 -3.090502 6.507 
695 745 -8.398019 -2.025915 50.813 
705 745 -7.700146 -2.148925 4.345 
715 745 -5.986798 -4.645206 1.708 
725 745 -5.702363 -4.747815 2.691 
735 745 -5.827535 -4.848051 1.863 
745 745 -4.823325 -5.413979 1.903 
755 745 -4.880416 -5.630363 2.571 
765 745 -5.306366 -5.588409 4.791 
775 745 -5.353640 -5.547140 2.775 
785 745 -4.603481 -5.218555 2.114 
795 745 -4.222484 -5.009441 1.272 
805 745 -4.466448 -5.083801 1.108 
815 745 -4.561526 -4.681420 1.262 
825 745 -4.476757 -4.615958 6.847 
835 745 -4.212293 -4.703599 3.915 
845 745 -4.059927 -4.980179 1.178 
855 745 -4.267556 -5.185284 1.437 
865 745 -4.487773 -5.331605 2.384 
875 745 -4.393037 -5.292772 2.923 
885 745 -4.057242 -4.929862 2.918 
895 745 -3.849077 -4.917243 1.259 
905 745 -4.002586 -5.148395 3.362 
915 745 -4.211534 -5.146172 2.931 
925 745 -4.400203 -4.967121 1.483 
935 745 -4.585115 -4.353138 4.262 
945 745 -4.661534 -3.596841 1.653 
955 745 -4.468903 -3.403167 1.298 
965 745 -3.832365 -3.443501 3.216 
975 745 -3.736258 -3.323877 14.531 
985 745 -4.527513 -3.399902 20.000 
995 745 -4.838360 -3.534678 32.963 
1005 745 -4.777867 -3.830272 3.935 
1015 745 -4.462854 -4.176181 2.873 
1025 745 -4.575395 -4.424345 1.997 
1035 745 -4.198355 -3.479839 2.328 
1045 745 -3.267627 -2.218140 2.538 
1055 745 -3.101048 -1.898985 458.922 
1065 745 -3.383049 -2.081933 5.627 
1075 745 -3.309438 -1.596761 1.362 
1085 745 -3.262741 -1.381068 3.032 
1095 745 -3.032510 -0.988192 2.860 
1105 745 -3.115825 -0.949570 3.245 
1115 745 -3.912123 -1.271147 1.579 
1125 745 -5.521207 -2.381721 2.086 
1135 745 -5.418537 -2.690614 3.003 
1145 745 -5.044680 -2.334264 5.063 
1155 745 -4.746589 -0.826725 3.344 
1165 745 -3.868983 -0.362552 1.468 
1175 745 1.403930 -0.381978 1.272 
1185 745 -1.704453 -2.278677 1.314 
1195 745 -1.499137 -4.222787 1.529 
1205 745 -0.895968 -5.217148 1.091 
1215 745 2.759078 -2.861618 1.362 
1225 745 1.613528 -1.939938 1.519 
1235 745 0.467977 -1.018258 1.193 
1245 745 -1.678950 -0.414659 2.054 
1255 745 -7.398013 0.421799 1.166 
1265 745 -14.468186 3.846465 1.134 
1275 745 -14.938584 0.587582 1.081 
5 735 -1.790810 -14.467870 1.470 
15 735 -4.953423 -14.485332 1.470 
25 735 -5.005031 -13.879600 1.311 
35 735 -6.653134 -12.638231 1.576 
45 735 -14.635251 -12.682237 1.175 
55 735 -16.789392 -4.698078 1.044 
65 735 -12.939418 -5.990186 1.096 
75 735 -3.275549 0.590415 1.015 
85 735 -2.684416 3.385336 1.115 
95 735 -3.622919 3.940662 1.022 
105 735 -7.511911 2.300283 1.254 
115 735 -11.152449 0.745544 1.266 
125 735 -12.532067 0.763148 1.106 
135 735 -10.962269 -1.541107 1.025 
145 735 -8.760685 -4.077884 1.084 
155 735 -9.278940 -4.713626 1.376 
165 735 -9.135677 -5.285662 1.784 
175 735 -8.506260 -5.655949 1.794 
185 735 -7.716016 -5.778510 1.028 
195 735 -6.875732 -5.761322 1.127 
205 735 -6.356195 -5.826014 1.020 
215 735 -7.071292 -4.679120 2.387 
225 735 -7.046193 -4.512958 2.644 
235 735 -6.553433 -4.750183 1.388 
245 735 -6.135064 -5.084262 1.115 
255 735 -6.460964 -5.279743 1.581 
265 735 -7.005990 -5.764555 4.005 
275 735 -6.790150 -6.192048 11.187 
285 735 -6.475440 -5.953785 4.489 
295 735 -6.577156 -5.796624 1.617 
305 735 -6.994146 -5.759409 1.135 
315 735 -7.790640 -5.504658 1.393 
325 735 -7.856144 -5.116973 1.206 
335 735 -7.542337 -4.549976 5.959 
345 735 -7.658915 -4.293494 2.682 
355 735 -7.757109 -4.537389 3.157 
365 735 -7.673935 -5.436263 1.655 
375 735 -7.764412 -5.806793 3.117 
385 735 -7.684406 -5.789873 4.165 
395 735 -7.237355 -4.956107 2.781 
405 735 -6.992395 -4.275139 1.231 
415 735 -7.006706 -4.303245 1.083 
425 735 -7.320572 -4.525966 1.842 
435 735 -7.284475 -4.954865 2.207 
445 735 -7.100197 -5.317800 3.469 
455 735 -7.210251 -5.787029 1.613 
465 735 -7.399461 -6.604236 2.169 
475 735 -7.440332 -6.659325 1.093 
485 735 -7.661672 -6.125732 1.109 
495 735 -7.785074 -5.914628 1.834 
505 735 -7.750330 -5.771216 3.206 
515 735 -7.101086 -5.492067 3.777 
525 735 -6.409119 -4.800976 1.125 
535 735 -6.345722 -4.610349 1.437 
545 735 -6.374135 -4.437611 2.196 
555 735 -6.486019 -4.691786 2.698 
565 735 -6.387857 -4.454562 1.617 
575 735 -5.969207 -4.455057 1.853 
585 735 -5.859750 -4.479721 2.197 
595 735 -6.316173 -4.304765 10.453 
605 735 -6.754095 -3.797961 2.793 
615 735 -6.731404 -3.791112 2.670 
625 735 -6.468876 -3.450299 1.993 
635 735 -6.259800 -3.200370 1.454 
645 735 -5.725443 -3.421897 1.999 
655 735 -5.605654 -3.592409 1.485 
665 735 -5.366176 -3.370027 1.426 
675 735 -5.545185 -3.346255 1.757 
685 735 -7.231118 -1.967817 8.545 
695 735 -8.917052 -0.589380 20.000 
705 735 -8.991272 0.592388 3.914 
715 735 -6.169776 -3.853801 1.061 
725 735 -5.556157 -4.370627 1.261 
735 735 -5.229451 -4.604529 2.753 
745 735 -4.884229 -5.098155 1.370 
755 735 -4.631265 -5.586441 1.858 
765 735 -4.897340 -5.651723 1.859 
775 735 -4.842954 -5.429676 2.029 
785 735 -4.426587 -5.400152 2.162 
795 735 -4.211251 -5.400449 2.699 
805 735 -4.249638 -5.417352 1.765 
815 735 -4.401357 -5.138403 1.532 