TITLE = "B00383"
VARIABLES = "x", "y", "u", "v", "sn"
ZONE T="Frame 0", I=128, J=80
5 795 0.000000 -0.000000 1.265 
15 795 -0.913736 5.010769 1.265 
25 795 -3.796692 4.205273 1.469 
35 795 -6.679648 3.399777 1.525 
45 795 -9.562604 2.594281 1.108 
55 795 -12.445560 1.788785 1.384 
65 795 -8.724111 9.027575 1.930 
75 795 -1.112151 10.313361 1.038 
85 795 6.499808 11.599147 1.155 
95 795 1.314468 12.370716 1.032 
105 795 -3.870872 13.142285 1.041 
115 795 -9.056212 13.913854 1.190 
125 795 -11.649339 6.769933 1.078 
135 795 -9.347694 1.413072 1.278 
145 795 -7.046050 -3.943789 1.052 
155 795 -6.592863 -0.988408 1.077 
165 795 -6.139676 1.966973 1.165 
175 795 -6.688461 1.741934 1.337 
185 795 -7.237246 1.516895 2.106 
195 795 -6.299615 2.030696 1.431 
205 795 -6.917587 1.873932 1.066 
215 795 -7.535558 1.717169 1.202 
225 795 -8.153530 1.560405 1.939 
235 795 -8.771501 1.403642 1.028 
245 795 -7.607419 0.686031 1.337 
255 795 -7.777392 0.188252 1.104 
265 795 -7.947364 -0.309527 1.385 
275 795 -9.079908 1.736652 1.292 
285 795 -9.418113 2.229565 1.618 
295 795 -9.460762 1.959613 2.076 
305 795 -9.014580 1.347858 1.833 
315 795 -8.388624 0.954094 1.471 
325 795 -8.288706 0.964433 1.707 
335 795 -8.188788 0.974772 1.556 
345 795 -8.088870 0.985111 2.236 
355 795 -8.473962 1.359622 1.767 
365 795 -9.388191 1.404256 1.656 
375 795 -9.377338 1.947953 2.343 
385 795 -8.266070 1.946027 1.097 
395 795 -7.154802 1.944100 1.159 
405 795 -8.986644 0.938539 1.726 
415 795 -8.412617 0.429295 1.226 
425 795 -8.515222 0.656997 1.351 
435 795 -8.589184 0.911807 1.034 
445 795 -8.312895 0.526864 2.639 
455 795 -8.386240 0.290729 4.306 
465 795 -8.537160 0.201818 2.634 
475 795 -8.448498 0.071630 3.600 
485 795 -8.378798 -0.047918 5.135 
495 795 -8.500577 -0.248083 4.047 
505 795 -8.678767 -0.135902 1.433 
515 795 -8.743746 0.024798 3.988 
525 795 -8.647742 -0.005603 2.373 
535 795 -8.798832 -0.399865 5.919 
545 795 -8.873693 -0.598786 4.449 
555 795 -8.819758 -0.550490 2.745 
565 795 -8.905808 -0.551677 10.036 
575 795 -9.077442 -0.648314 97.861 
585 795 -9.129856 -0.670854 9.622 
595 795 -9.173405 -0.636482 2.081 
605 795 -9.340305 -0.821299 1.343 
615 795 -9.112981 -0.767919 1.487 
625 795 -9.043468 -0.833047 5.102 
635 795 -9.159515 -1.090632 6.780 
645 795 -8.514008 -2.193410 1.140 
655 795 -8.556553 -1.845868 1.307 
665 795 -8.710093 -1.087553 1.632 
675 795 -8.579636 -1.063702 2.168 
685 795 -9.091883 -0.999245 2.006 
695 795 -9.510236 -0.767319 4.344 
705 795 -9.894607 -0.856905 2.890 
715 795 -10.108206 -0.822263 12.254 
725 795 -9.935374 -0.857601 1.620 
735 795 -9.771507 -0.442689 1.413 
745 795 -9.881268 -0.477248 1.690 
755 795 -10.051329 -1.823120 1.161 
765 795 -9.897720 -1.660459 1.008 
775 795 -9.877481 -1.469470 1.600 
785 795 -10.545938 -1.812833 1.883 
795 795 -10.538946 -2.534956 3.143 
805 795 -10.125662 -2.474920 1.121 
815 795 -9.712378 -2.414884 1.416 
825 795 -9.645382 -2.212655 2.814 
835 795 -10.001770 -1.736683 3.922 
845 795 -10.416671 -1.342348 1.976 
855 795 -10.565699 -1.449973 1.776 
865 795 -10.573333 -1.652536 3.435 
875 795 -10.393042 -1.690282 1.393 
885 795 -10.368849 -1.763748 1.814 
895 795 -10.254869 -1.482045 11.409 
905 795 -9.190335 -0.109276 1.764 
915 795 -9.582003 1.242858 1.544 
925 795 -2.779362 1.269654 1.643 
935 795 4.023278 1.296450 2.540 
945 795 -9.466163 -1.820203 2.277 
955 795 -10.399227 -1.899820 1.764 
965 795 -11.024754 -1.787419 2.436 
975 795 -10.851578 -2.036756 1.424 
985 795 -10.687213 -1.936287 2.896 
995 795 -10.938641 -2.024941 2.263 
1005 795 -11.559070 -1.685158 1.114 
1015 795 -11.129777 -1.640414 2.271 
1025 795 -10.700484 -1.595670 1.283 
1035 795 -10.450671 -1.573858 2.564 
1045 795 -9.980735 -0.914460 12.477 
1055 795 -8.524636 -0.158813 8.447 
1065 795 -7.068537 0.596834 1.383 
1075 795 -5.108981 1.448374 1.849 
1085 795 -5.419943 3.227620 1.085 
1095 795 -5.730905 5.006865 1.355 
1105 795 -6.041867 6.786111 1.094 
1115 795 -6.352829 8.565356 2.463 
1125 795 -5.686228 6.787806 20.000 
1135 795 -4.772860 6.382228 2.517 
1145 795 -3.112331 4.909889 1.302 
1155 795 6.086635 -5.393202 1.013 
1165 795 5.275464 -2.678235 1.200 
1175 795 4.464293 0.036733 1.616 
1185 795 3.653122 2.751700 1.018 
1195 795 2.841951 5.466667 1.001 
1205 795 2.030780 8.181634 1.299 
1215 795 1.219609 10.896601 1.038 
1225 795 3.213807 11.613206 1.046 
1235 795 4.919144 6.601477 1.170 
1245 795 6.946581 4.614252 2.277 
1255 795 0.989391 4.622711 1.427 
1265 795 -4.967799 4.631169 1.102 
1275 795 -8.679633 5.168674 1.141 
5 785 0.000000 -0.000000 1.265 
15 785 -5.601625 5.972477 1.265 
25 785 -3.827033 -0.407807 1.469 
35 785 -3.929551 -7.464074 1.525 
45 785 -12.292011 -7.691475 1.108 
55 785 -15.282451 -1.303918 1.384 
65 785 -10.529744 6.103666 1.930 
75 785 -1.218609 10.255941 1.038 
85 785 6.896524 9.510437 1.155 
95 785 7.326509 9.446755 1.032 
105 785 -4.170408 11.141385 1.041 
115 785 -10.371629 10.890379 1.190 
125 785 -12.270641 4.226786 1.078 
135 785 -11.554463 -3.883834 1.278 
145 785 -6.978253 -3.888234 1.052 
155 785 -6.502918 -0.924093 1.077 
165 785 -6.027583 2.040048 1.165 
175 785 -8.572242 2.041324 1.337 
185 785 -7.547168 1.745099 2.106 
195 785 -6.707134 1.817564 1.431 
205 785 -7.416869 1.271695 1.066 
215 785 -8.178782 1.267810 1.202 
225 785 -8.940695 1.263926 1.939 
235 785 -9.245459 1.079994 1.028 
245 785 -8.057338 0.498957 1.337 
255 785 -7.771554 -0.216152 1.104 
265 785 -8.415571 0.138519 1.385 
275 785 -9.114009 1.628887 1.292 
285 785 -9.347352 2.131702 1.618 
295 785 -9.363256 1.905152 2.076 
305 785 -8.909884 1.252029 1.833 
315 785 -8.314472 0.864574 1.471 
325 785 -7.941294 0.749320 1.707 
335 785 -8.298779 0.732532 1.556 
345 785 -7.920518 0.742774 2.236 
355 785 -8.265548 1.096030 1.767 
365 785 -9.123014 1.124477 1.656 
375 785 -9.255919 1.603396 2.343 
385 785 -8.014264 1.915156 1.097 
395 785 -8.441542 1.367125 1.159 
405 785 -8.868819 0.819094 1.726 
415 785 -8.355331 0.339555 1.226 
425 785 -8.438988 0.539453 1.351 
435 785 -8.497989 0.792810 1.034 
445 785 -8.248012 0.429761 2.639 
455 785 -8.379607 0.261706 4.306 
465 785 -8.536758 0.178034 2.634 
475 785 -8.445505 0.063616 3.600 
485 785 -8.325832 -0.034301 5.135 
495 785 -8.482317 -0.186732 4.047 
505 785 -8.668695 -0.021236 1.433 
515 785 -8.867636 0.115967 3.988 
525 785 -8.726243 0.087393 2.373 
535 785 -8.795135 -0.248643 5.919 
545 785 -8.797251 -0.430834 4.449 
555 785 -8.535891 -0.258652 2.745 
565 785 -8.900676 -0.457347 10.036 
575 785 -9.037546 -0.536084 97.861 
585 785 -9.123657 -0.587758 9.622 
595 785 -9.197674 -0.567137 2.081 
605 785 -9.351445 -0.760311 1.343 
615 785 -9.111448 -0.711435 1.487 
625 785 -9.017947 -0.819709 5.102 
635 785 -9.105251 -1.026434 6.780 
645 785 -8.480500 -1.669156 1.140 
655 785 -8.544049 -1.712119 1.307 
665 785 -8.758269 -1.067529 1.632 
675 785 -8.789516 -0.838141 2.168 
685 785 -9.105846 -0.952780 2.006 
695 785 -9.494650 -0.788088 4.344 
705 785 -9.864708 -0.895741 2.890 
715 785 -10.048226 -0.842809 12.254 
725 785 -9.901913 -0.903594 1.620 
735 785 -9.764514 -0.507530 1.413 
745 785 -9.900349 -0.583877 1.690 
755 785 -10.077000 -1.912087 1.161 
765 785 -9.874560 -1.647148 1.008 
775 785 -9.743643 -1.404975 1.600 
785 785 -10.355368 -1.758556 1.883 
795 785 -10.338770 -2.485107 3.143 
805 785 -9.978346 -2.413056 1.121 
815 785 -9.617921 -2.341005 1.416 
825 785 -9.605405 -2.129076 2.814 
835 785 -9.941140 -1.685524 3.922 
845 785 -10.311427 -1.327039 1.976 
855 785 -10.477040 -1.429960 1.776 
865 785 -10.575660 -1.621889 3.435 
875 785 -10.529463 -1.672109 1.393 
885 785 -10.251491 -1.756302 1.814 
895 785 -9.993198 -1.469116 11.409 
905 785 -9.827431 -0.593346 1.764 
915 785 -9.547596 -0.028315 1.544 
925 785 -4.777036 0.221661 1.643 
935 785 -5.008373 -0.510996 2.540 
945 785 -10.241607 -2.226285 2.277 
955 785 -11.220566 -2.254070 1.764 
965 785 -10.966686 -1.925552 2.436 
975 785 -10.818643 -2.146451 1.424 
985 785 -10.608538 -1.972894 2.896 
995 785 -10.872583 -2.046672 2.263 
1005 785 -11.417580 -1.737794 1.114 
1015 785 -11.384108 -1.693421 2.271 
1025 785 -11.019373 -1.907315 1.283 
1035 785 -10.986513 -2.064306 2.564 
1045 785 -10.751763 -1.746532 12.477 
1055 785 -10.029183 -1.048937 8.447 
1065 785 -8.713336 -0.903083 1.383 
1075 785 -7.086684 -0.197696 1.849 
1085 785 -4.904859 0.972620 1.085 
1095 785 -5.215821 2.751866 1.355 
1105 785 -5.526782 4.531111 1.094 
1115 785 -5.859016 6.310680 2.463 
1125 785 -3.660436 4.697900 20.000 
1135 785 -1.320644 2.556234 2.517 
1145 785 -0.050860 1.751005 1.302 
1155 785 5.581101 -9.962191 1.013 
1165 785 3.642436 -8.720734 1.200 
1175 785 1.703771 -7.479277 1.616 
1185 785 0.783958 -6.953682 1.018 
1195 785 0.767869 -5.869431 1.001 
1205 785 2.164423 -2.159029 1.299 
1215 785 6.798962 11.088046 1.038 
1225 785 9.343598 9.596276 1.046 
1235 785 13.111331 6.910779 1.170 
1245 785 14.152481 2.869172 2.277 
1255 785 7.825256 4.291330 1.427 
1265 785 -0.376306 5.259344 1.102 
1275 785 -7.485109 4.829105 1.141 
5 775 0.000000 -0.000000 1.002 
15 775 -5.604277 0.122225 1.002 
25 775 -8.951484 -3.344776 1.117 
35 775 -13.597188 -7.785861 1.036 
45 775 -14.004003 -7.634315 1.307 
55 775 -15.702631 -4.364764 1.103 
65 775 -11.496447 2.424623 1.323 
75 775 -4.173046 4.678670 1.121 
85 775 0.973993 5.484368 1.240 
95 775 2.397922 6.047194 1.019 
105 775 -3.481052 5.130934 1.269 
115 775 -9.405887 4.830927 1.290 
125 775 -12.448436 0.346565 1.138 
135 775 -9.234319 -2.068567 1.597 
145 775 -5.939317 -2.266005 1.148 
155 775 -4.590950 0.223924 1.092 
165 775 -6.239369 2.628056 1.056 
175 775 -7.851255 1.992645 20.000 
185 775 -7.718822 1.838522 2.655 
195 775 -7.211096 1.498450 1.219 
205 775 -7.672243 0.979611 1.058 
215 775 -8.534123 0.512695 1.443 
225 775 -9.370410 0.461101 1.714 
235 775 -9.710453 0.724443 1.099 
245 775 -9.255268 0.399558 2.008 
255 775 -8.800083 0.074673 1.808 
265 775 -8.751718 0.688772 1.391 
275 775 -8.881701 1.790348 1.526 
285 775 -9.052572 2.149254 2.056 
295 775 -9.011355 1.908131 2.842 
305 775 -8.663934 1.404153 3.003 
315 775 -7.895854 0.677702 1.950 
325 775 -8.199584 0.592547 2.018 
335 775 -8.057354 0.647082 1.393 
345 775 -7.761882 0.499326 1.047 
355 775 -7.706960 0.653885 1.046 
365 775 -8.484585 0.946077 1.943 
375 775 -8.768985 0.839346 4.904 
385 775 -7.982331 1.138061 4.207 
395 775 -8.074575 0.845705 2.190 
405 775 -8.166818 0.553349 1.698 
415 775 -7.936958 0.274444 1.800 
425 775 -8.277272 0.430257 1.428 
435 775 -8.461686 0.627520 1.482 
445 775 -8.256941 0.418534 6.105 
455 775 -8.437923 0.247939 12.493 
465 775 -8.546139 0.183879 5.770 
475 775 -8.371887 -0.013281 2.152 
485 775 -8.263827 -0.051293 5.700 
495 775 -8.472508 -0.000657 2.482 
505 775 -8.825682 0.181453 1.019 
515 775 -9.142491 0.294359 1.732 
525 775 -9.060717 0.216139 1.580 
535 775 -9.007440 -0.051682 1.717 
545 775 -8.674461 -0.068090 1.546 
555 775 -8.685851 -0.085493 4.072 
565 775 -8.789154 -0.332273 3.370 
575 775 -8.864851 -0.495609 36.819 
585 775 -8.975372 -0.500001 3.712 
595 775 -9.293593 -0.467816 2.375 
605 775 -9.350874 -0.634632 2.445 
615 775 -8.986337 -0.624261 2.725 
625 775 -8.934702 -0.624005 4.816 
635 775 -8.753339 -0.747098 34.946 
645 775 -8.446992 -1.144902 1.667 
655 775 -8.334259 -0.959760 1.003 
665 775 -8.788029 -0.563492 20.000 
675 775 -9.047582 -0.499223 20.000 
685 775 -9.402259 -0.738596 3.059 
695 775 -9.573328 -1.109365 5.167 
705 775 -9.752289 -1.090957 2.043 
715 775 -9.953808 -1.058168 2.322 
725 775 -9.817196 -0.998619 4.604 
735 775 -9.755072 -0.942635 2.387 
745 775 -10.008268 -1.117596 1.305 
755 775 -10.112053 -1.543630 2.370 
765 775 -9.831628 -1.281742 6.481 
775 775 -9.577357 -1.437464 8.515 
785 775 -9.828868 -1.659660 3.005 
795 775 -9.895182 -2.377937 1.095 
805 775 -9.726511 -2.419639 1.784 
815 775 -9.657473 -2.086259 1.250 
825 775 -9.574293 -1.863582 2.097 
835 775 -9.949261 -1.504774 2.629 
845 775 -10.281717 -1.238061 2.467 
855 775 -10.946708 -1.319051 1.007 
865 775 -11.275518 -1.499233 2.291 
875 775 -11.134490 -1.637354 1.022 
885 775 -10.110222 -1.864728 5.268 
895 775 -9.705107 -1.823417 3.710 
905 775 -9.465025 -1.443318 1.579 
915 775 -9.431129 -0.921259 2.323 
925 775 -8.806789 -0.603152 1.001 
935 775 -9.443351 -1.437770 1.494 
945 775 -10.079912 -2.272389 1.938 
955 775 -10.930021 -2.297729 1.568 
965 775 -10.526434 -2.084194 1.946 
975 775 -10.809865 -2.301284 2.244 
985 775 -10.360023 -2.091828 3.690 
995 775 -10.369343 -1.805896 1.972 
1005 775 -11.031449 -1.789955 1.640 
1015 775 -10.709347 -1.933534 1.785 
1025 775 -10.611804 -2.406519 1.667 
1035 775 -10.924052 -2.584016 2.876 
1045 775 -11.029295 -2.331819 4.362 
1055 775 -10.883039 -1.872776 2.742 
1065 775 -10.750485 -1.847297 1.167 
1075 775 -9.961396 -1.390094 1.461 
1085 775 -9.470036 0.483486 1.603 
1095 775 -4.700736 0.496867 1.072 
1105 775 -4.341687 1.267370 1.044 
1115 775 -3.982638 2.037873 1.602 
1125 775 -1.855165 1.901141 2.978 
1135 775 1.020041 -0.264875 20.000 
1145 775 3.425588 -6.377998 1.501 
1155 775 4.190484 -12.723532 1.199 
1165 775 6.189309 -12.885195 1.656 
1175 775 5.007025 -11.645178 1.205 
1185 775 6.139708 -8.086824 1.257 
1195 775 6.466019 -8.168031 1.301 
1205 775 7.604086 -3.133840 1.820 
1215 775 12.129760 5.925771 1.007 
1225 775 15.473389 7.579345 1.049 
1235 775 18.186984 5.050792 1.237 
1245 775 16.835016 3.649975 1.462 
1255 775 10.328049 2.771334 1.400 
1265 775 2.025058 2.896615 1.417 
1275 775 -5.918167 2.558957 1.201 
5 765 0.000000 -0.000000 1.217 
15 765 -6.436035 -2.236365 1.217 
25 765 -11.371345 -4.331659 1.307 
35 765 -14.440898 -6.924596 1.570 
45 765 -15.281854 -7.175102 1.012 
55 765 -16.122810 -7.425609 1.006 
65 765 -12.868994 -4.326666 1.046 
75 765 -7.869579 -1.221666 1.014 
85 765 -5.194151 2.734286 1.149 
95 765 0.576424 4.366633 1.181 
105 765 -4.487261 2.820349 1.029 
115 765 -9.143691 1.701302 1.492 
125 765 -8.902179 1.102929 1.058 
135 765 -6.914175 -0.253299 1.421 
145 765 -4.900380 -0.643776 1.458 
155 765 -5.566123 1.846828 1.080 
165 765 -6.966287 2.779101 1.323 
175 765 -7.130268 1.943966 6.376 
185 765 -7.189364 1.523782 3.546 
195 765 -7.642204 1.128862 4.268 
205 765 -8.081910 0.387314 2.369 
215 765 -8.906945 -0.131502 1.394 
225 765 -9.887373 0.023744 2.900 
235 765 -9.883511 0.466997 1.521 
245 765 -9.310756 0.345067 1.470 
255 765 -8.738000 0.223137 1.334 
265 765 -8.638113 0.873216 1.745 
275 765 -8.525096 1.584295 1.940 
285 765 -8.625940 1.906797 1.897 
295 765 -8.597097 1.721246 2.258 
305 765 -8.142777 1.283548 2.376 
315 765 -7.749502 0.873623 1.859 
325 765 -7.861273 0.709095 6.541 
335 765 -7.861929 0.647772 1.168 
345 765 -7.603246 0.255878 2.051 
355 765 -7.067125 0.280998 1.818 
365 765 -8.349077 0.253832 1.857 
375 765 -8.180064 0.024294 2.760 
385 765 -7.811216 0.319568 1.679 
395 765 -7.580811 0.613238 1.306 
405 765 -7.887235 0.577445 1.328 
415 765 -7.980179 0.366126 1.931 
425 765 -8.115555 0.321062 2.021 
435 765 -8.447700 0.466385 2.052 
445 765 -8.322268 0.359519 4.593 
455 765 -8.422152 0.238139 11.506 
465 765 -8.449849 0.161557 13.988 
475 765 -8.179419 -0.057566 2.513 
485 765 -7.963874 -0.080418 3.174 
495 765 -8.209160 -0.048240 1.392 
505 765 -8.928294 0.024599 1.042 
515 765 -9.502029 0.088696 1.476 
525 765 -9.172189 0.146584 1.508 
535 765 -9.060386 0.006844 1.346 
545 765 -8.586137 0.017885 2.352 
555 765 -8.720019 -0.027877 1.368 
565 765 -8.807783 -0.251490 1.162 
575 765 -8.729246 -0.325959 1.851 
585 765 -8.848132 -0.375543 2.994 
595 765 -9.250769 -0.602320 1.675 
605 765 -9.347491 -0.762664 1.518 
615 765 -9.045822 -0.790209 1.876 
625 765 -8.851457 -0.428301 1.437 
635 765 -8.593257 -0.321442 1.627 
645 765 -8.514819 -0.310565 1.111 
655 765 -8.430932 -0.158370 1.008 
665 765 -9.010155 -0.167000 4.565 
675 765 -9.205811 -0.352436 20.000 
685 765 -9.393845 -0.740182 5.215 
695 765 -9.524864 -1.279517 3.820 
705 765 -9.636386 -1.132819 3.640 
715 765 -9.741176 -1.033717 2.224 
725 765 -9.759243 -0.949662 1.407 
735 765 -9.806894 -0.858395 1.096 
745 765 -10.035087 -1.106294 1.951 
755 765 -10.238583 -1.352796 2.382 
765 765 -10.036306 -1.223657 2.585 
775 765 -9.841967 -1.218550 2.670 
785 765 -9.929852 -1.600233 1.471 
795 765 -9.942174 -2.143537 1.561 
805 765 -9.657125 -2.169336 2.125 
815 765 -9.491434 -1.856279 1.041 
825 765 -9.472464 -1.791590 1.346 
835 765 -9.752901 -1.483968 4.372 
845 765 -10.070311 -1.307052 4.133 
855 765 -10.984354 -1.327504 1.085 
865 765 -11.855970 -1.434282 1.115 
875 765 -12.152410 -1.700903 1.373 
885 765 -11.022336 -2.043360 1.389 
895 765 -8.916879 -2.290095 1.148 
905 765 -9.347014 -2.237468 1.245 
915 765 -9.314661 -1.814202 1.614 
925 765 -10.087149 -1.245358 1.290 
935 765 -10.233441 -1.482102 1.528 
945 765 -10.410209 -2.118149 1.843 
955 765 -10.639476 -2.341388 4.110 
965 765 -10.701759 -2.265475 3.333 
975 765 -10.634387 -2.396440 3.510 
985 765 -10.290969 -2.185388 45.065 
995 765 -10.070694 -1.873425 2.540 
1005 765 -10.637116 -2.099846 1.050 
1015 765 -10.392242 -2.105689 2.673 
1025 765 -10.472689 -2.469348 2.513 
1035 765 -10.621084 -2.907578 2.672 
1045 765 -10.861495 -2.691411 2.399 
1055 765 -11.283773 -2.400227 2.169 
1065 765 -12.224007 -2.385967 1.052 
1075 765 -12.579268 -2.227787 2.022 
1085 765 -11.390560 -1.609909 2.477 
1095 765 -8.540820 -0.495454 2.442 
1105 765 -6.997225 -0.339388 1.151 
1115 765 -5.382958 -0.408668 1.131 
1125 765 0.763547 -0.034466 1.359 
1135 765 3.868787 -0.995003 1.418 
1145 765 5.788740 -5.054206 1.094 
1155 765 6.242824 -10.275835 1.237 
1165 765 9.326654 -10.521723 1.251 
1175 765 13.517884 -7.514096 1.032 
1185 765 11.495458 -9.219966 1.300 
1195 765 12.301835 -6.754963 1.008 
1205 765 14.267115 -4.734837 1.298 
1215 765 16.823102 -0.631484 1.052 
1225 765 20.123809 2.208229 1.055 
1235 765 19.591450 1.509393 1.051 
1245 765 17.716889 1.070933 1.224 
1255 765 12.218857 -0.441212 1.133 
1265 765 4.169625 -0.989433 1.039 
1275 765 -0.152863 1.912803 1.130 
5 755 -2.087379 -4.523819 1.117 
15 755 -5.656669 -4.670776 1.117 
25 755 -10.868517 -5.637612 1.039 
35 755 -15.049564 -7.849787 1.953 
45 755 -17.120566 -10.586543 1.376 
55 755 -16.170880 -11.588074 1.279 
65 755 -14.241541 -11.077954 1.354 
75 755 -13.007214 -5.420121 1.729 
85 755 -11.772888 0.237713 1.517 
95 755 -3.794540 3.123768 1.103 
105 755 -5.390797 2.133416 1.038 
115 755 -9.163148 0.869016 1.771 
125 755 -7.778398 0.661504 1.193 
135 755 -6.393648 0.453992 1.617 
145 755 -5.561340 1.169494 1.331 
155 755 -5.748737 1.489099 1.508 
165 755 -6.415519 1.995017 2.166 
175 755 -6.679074 1.351445 1.969 
185 755 -7.069576 0.933252 1.869 
195 755 -7.816118 0.414623 2.817 
205 755 -7.953459 -0.130778 1.013 
215 755 -8.648419 -0.574692 1.845 
225 755 -9.347054 -0.344037 1.001 
235 755 -9.158286 0.176624 1.021 
245 755 -8.917102 0.274112 1.494 
255 755 -8.675917 0.371601 1.187 
265 755 -8.396810 0.693306 1.829 
275 755 -8.268164 0.891249 2.188 
285 755 -8.239779 1.331587 1.090 
295 755 -8.211395 1.771926 1.074 
305 755 -7.563369 1.610970 1.650 
315 755 -7.320653 1.142328 8.396 
325 755 -7.445100 0.726392 2.569 
335 755 -7.507625 0.870575 1.206 
345 755 -7.358985 0.616026 1.121 
355 755 -7.491099 0.063563 1.097 
365 755 -8.176783 -0.095163 1.418 
375 755 -7.739053 0.241759 1.387 
385 755 -7.647776 0.402507 1.055 
395 755 -7.524677 0.677919 1.582 
405 755 -7.768453 0.794688 1.355 
415 755 -8.163963 0.610440 1.025 
425 755 -7.985121 0.644816 2.381 
435 755 -8.310612 0.522990 1.583 
445 755 -8.501105 0.252962 3.495 
455 755 -8.339530 0.056708 4.322 
465 755 -8.129299 0.026472 2.812 
475 755 -7.710152 0.031861 4.899 
485 755 -7.519329 0.043173 13.801 
495 755 -7.785957 0.204146 1.704 
505 755 -8.746172 0.278193 1.273 
515 755 -9.302268 0.160405 1.274 
525 755 -9.283661 0.077029 1.830 
535 755 -8.902172 -0.033479 1.827 
545 755 -8.360726 -0.018975 2.664 
555 755 -8.750948 -0.100219 3.514 
565 755 -8.878138 -0.260782 4.583 
575 755 -8.880192 -0.375796 1.646 
585 755 -8.994380 -0.396900 2.182 
595 755 -9.164342 -0.505354 2.098 
605 755 -9.225672 -0.648383 2.038 
615 755 -9.260979 -0.865911 1.549 
625 755 -9.033939 -0.617262 1.348 
635 755 -8.745072 -0.668236 4.205 
645 755 -8.611331 -0.357601 3.737 
655 755 -8.930333 -0.036617 3.259 
665 755 -9.357642 -0.310617 2.015 
675 755 -9.407720 -0.528231 2.397 
685 755 -9.479651 -0.894730 3.802 
695 755 -9.493313 -0.957111 2.930 
705 755 -9.470287 -0.871675 5.217 
715 755 -9.543538 -0.853379 2.501 
725 755 -9.604824 -0.815626 1.166 
735 755 -9.673578 -0.899623 2.035 
745 755 -9.863770 -0.998670 3.730 
755 755 -10.232787 -1.125564 2.125 
765 755 -10.194354 -1.131150 2.944 
775 755 -9.891165 -1.185005 1.048 
785 755 -9.858474 -1.468785 1.806 
795 755 -9.946048 -1.698028 1.143 
805 755 -9.649987 -1.778550 2.191 
815 755 -9.408358 -1.573485 1.433 
825 755 -9.649643 -1.543306 1.078 
835 755 -9.469555 -1.334085 3.265 
845 755 -9.759906 -1.238382 2.897 
855 755 -9.724985 -1.490295 1.395 
865 755 -10.665649 -1.549499 5.684 
875 755 -11.284201 -1.712412 4.635 
885 755 -11.313756 -2.165605 2.387 
895 755 -9.014327 -2.429083 1.182 
905 755 -9.208995 -2.284049 1.018 
915 755 -9.855892 -2.070498 1.332 
925 755 -10.103101 -1.651958 1.267 
935 755 -10.388983 -1.563274 1.209 
945 755 -10.574455 -2.044306 1.617 
955 755 -10.541065 -2.505152 1.344 
965 755 -10.640320 -2.480937 1.673 
975 755 -10.529897 -2.453339 4.175 
985 755 -10.050728 -2.340993 2.309 
995 755 -9.918792 -2.195010 1.900 
1005 755 -10.386893 -2.303680 2.243 
1015 755 -10.311538 -2.012718 2.216 
1025 755 -10.409951 -2.227327 1.766 
1035 755 -10.538828 -2.726885 1.652 
1045 755 -10.752813 -2.665037 3.645 
1055 755 -11.316741 -2.557197 3.679 
1065 755 -11.800879 -2.481487 191.845 
1075 755 -12.108409 -2.512747 1.492 
1085 755 -11.899459 -2.477375 2.008 
1095 755 -9.816015 -2.018188 5.072 
1105 755 -8.402039 -1.852960 20.000 
1115 755 -7.242368 -1.637826 1.492 
1125 755 2.866625 -0.759252 1.274 
1135 755 5.391205 -0.502701 1.670 
1145 755 7.105583 -2.332811 1.232 
1155 755 7.081223 -6.193082 1.129 
1165 755 8.590367 -8.065626 1.143 
1175 755 11.063400 -5.583853 1.047 
1185 755 10.781485 -4.586633 1.163 
1195 755 12.020050 -0.718399 1.047 
1205 755 15.443286 -0.993881 1.011 
1215 755 19.449403 -3.176815 1.587 
1225 755 19.894279 -0.066622 1.899 
1235 755 19.914656 -2.738564 1.094 
1245 755 19.576388 -3.738075 1.437 
1255 755 16.698237 -3.579222 1.342 
1265 755 8.107275 -2.934460 1.501 
1275 755 5.612441 1.266650 1.463 
5 745 0.656452 -7.632020 1.015 
15 745 -2.881889 -7.669728 1.015 
25 745 -8.416775 -8.438095 1.002 
35 745 -13.220032 -9.610057 1.150 
45 745 -13.625611 -11.647392 1.412 
55 745 -13.879623 -14.144015 1.955 
65 745 -12.802364 -12.710569 1.003 
75 745 -14.931789 -6.190570 1.317 
85 745 -12.808329 -1.755248 1.144 
95 745 -4.904835 1.732774 1.099 
105 745 -6.294333 1.446482 1.409 
115 745 -7.924377 0.406226 1.044 
125 745 -7.192961 0.375317 1.089 
135 745 -6.461545 0.344408 1.085 
145 745 -5.622159 0.033345 2.847 
155 745 -5.020602 0.355826 2.024 
165 745 -5.756479 1.157779 2.295 
175 745 -6.228331 0.884105 2.293 
185 745 -6.459474 0.580740 2.267 
195 745 -7.175722 0.050000 1.869 
205 745 -7.216325 -0.431808 1.928 
215 745 -7.586862 -0.803631 1.076 
225 745 -8.092554 -0.606419 1.115 
235 745 -7.919218 -0.101395 1.395 
245 745 -7.662927 0.497984 1.298 
255 745 -7.769175 0.435715 1.540 
265 745 -7.916205 0.491462 1.594 
275 745 -7.924666 0.347286 1.438 
285 745 -7.856897 1.140843 1.033 
295 745 -7.789128 1.934400 1.416 
305 745 -7.093705 1.991221 10.069 
315 745 -6.902829 1.931759 5.583 
325 745 -7.420242 0.718135 3.013 
335 745 -7.710211 0.183413 1.368 
345 745 -6.564524 0.921961 1.168 
355 745 -7.659004 0.525610 1.163 
365 745 -7.771602 0.928089 1.004 
375 745 -7.740485 0.694947 1.330 
385 745 -7.889761 0.705902 1.403 
395 745 -7.931850 0.850518 1.262 
405 745 -8.130488 0.689778 1.143 
415 745 -8.424124 0.896207 1.789 
425 745 -8.035298 0.853947 2.155 
435 745 -8.108736 0.464425 1.341 
445 745 -8.388411 0.358650 2.549 
455 745 -8.241518 0.350852 7.020 
465 745 -8.077858 0.184700 3.156 
475 745 -7.758183 0.036173 3.951 
485 745 -7.494141 0.059025 2.427 
495 745 -7.760707 0.013982 2.683 
505 745 -8.445150 0.215301 1.674 
515 745 -8.963293 0.094765 2.710 
525 745 -8.854296 0.110234 1.883 
535 745 -8.642721 -0.066801 1.966 
545 745 -8.426047 -0.136376 7.414 
555 745 -8.574115 -0.158407 9.337 
565 745 -8.851258 -0.332450 3.151 
575 745 -8.959632 -0.334673 2.604 
585 745 -9.130111 -0.229334 1.597 
595 745 -9.199633 -0.061530 1.009 
605 745 -9.240236 -0.080398 1.570 
615 745 -9.258670 -0.326335 3.196 
625 745 -9.158887 -0.448652 2.439 
635 745 -8.877627 -0.617129 1.318 
645 745 -8.935544 -0.512325 2.059 
655 745 -9.139240 -0.349805 1.654 
665 745 -9.243302 -0.457432 4.712 
675 745 -9.422777 -0.795993 1.857 
685 745 -9.584868 -0.793171 4.406 
695 745 -9.547214 -0.786026 4.226 
705 745 -9.550372 -0.582331 4.624 
715 745 -9.463114 -0.786688 1.429 
725 745 -9.334494 -0.983608 1.258 
735 745 -9.434406 -0.968195 2.881 
745 745 -9.528279 -1.080261 2.986 
755 745 -10.243116 -0.817450 1.811 
765 745 -10.391316 -0.893530 1.744 
775 745 -9.940362 -1.151459 1.486 
785 745 -9.787097 -1.337337 1.554 
795 745 -9.934835 -1.337799 1.050 
805 745 -9.590104 -1.479912 1.926 
815 745 -9.913701 -1.510051 2.761 
825 745 -9.893463 -1.354240 2.792 
835 745 -9.628832 -1.180157 3.191 
845 745 -9.580519 -1.237323 3.259 
855 745 -9.404838 -1.431996 1.198 
865 745 -9.910415 -1.577958 1.129 
875 745 -10.415992 -1.723920 2.520 
885 745 -10.205641 -2.078795 2.790 
895 745 -9.736655 -2.100249 1.212 
905 745 -9.715651 -2.143659 1.205 
915 745 -10.100685 -2.046482 2.280 
925 745 -10.109943 -1.830083 2.428 
935 745 -10.084970 -1.723631 2.894 
945 745 -10.161837 -1.837680 2.013 
955 745 -10.374701 -2.246744 1.446 
965 745 -10.544187 -2.380818 1.022 
975 745 -10.455618 -2.453359 1.665 
985 745 -10.316884 -2.237580 2.021 
995 745 -10.122920 -2.289372 2.576 
1005 745 -10.298363 -2.052897 1.458 
1015 745 -10.374290 -1.828868 1.960 
1025 745 -10.455490 -1.779279 9.043 
1035 745 -10.860416 -2.133732 1.206 
1045 745 -10.873419 -2.422096 1.517 
1055 745 -11.061333 -2.235947 5.657 
1065 745 -11.292912 -1.921684 57.865 
1075 745 -11.555776 -2.207580 20.000 
1085 745 -11.079287 -2.604900 2.090 
1095 745 -10.249895 -2.551652 1.940 
1105 745 -8.946764 -2.306583 3.797 
1115 745 -7.775103 -2.218040 1.007 
1125 745 -2.542509 -1.663140 1.015 
1135 745 3.010536 -0.059124 1.028 
1145 745 8.283177 -1.562413 1.047 
1155 745 5.889051 -5.324901 1.151 
1165 745 7.854081 -5.609529 1.026 
1175 745 8.608915 -3.653610 1.181 
1185 745 10.067512 0.046700 1.428 
1195 745 11.731042 1.755816 1.062 
1205 745 13.394572 3.464932 1.042 
1215 745 15.916368 -2.292744 1.723 
1225 745 19.664749 -2.341472 2.100 
1235 745 19.883486 -3.843080 1.012 
1245 745 20.211933 -4.245463 1.184 
1255 745 19.612946 -2.466883 1.470 
1265 745 16.137060 -1.522975 1.523 
1275 745 11.377746 0.620496 1.404 
5 735 3.764806 -12.870181 1.161 
15 735 0.470177 -13.761600 1.161 
25 735 -3.918462 -12.797875 1.285 
35 735 -8.411893 -13.374873 1.160 
45 735 -9.112397 -15.074851 1.009 
55 735 -9.405045 -16.761291 1.556 
65 735 -10.189652 -14.014881 1.035 
75 735 -11.474539 -7.952337 1.198 
85 735 -7.420773 -5.888668 1.331 
95 735 -1.562404 -3.670792 1.024 
105 735 -3.292030 -1.323858 1.113 
115 735 -4.339972 -1.737917 1.178 
125 735 -5.843116 -0.917796 1.095 
135 735 -5.997607 -0.260910 1.463 
145 735 -4.955773 -0.362672 2.157 
155 735 -4.292468 -0.777446 2.586 
165 735 -5.156609 0.575672 1.505 
175 735 -5.641235 0.713532 2.760 
185 735 -5.885361 0.496197 1.885 
195 735 -5.740511 0.405062 2.372 
205 735 -5.624456 -0.519251 1.622 
215 735 -6.114395 -0.763440 1.948 
225 735 -6.680313 -0.619938 1.310 
235 735 -6.665949 -0.244402 1.255 
245 735 -6.480051 0.206606 2.131 
255 735 -6.795911 0.568096 1.367 
265 735 -7.559078 0.702142 1.773 
275 735 -7.182768 0.481148 2.682 
285 735 -7.539386 0.937361 1.007 
295 735 -7.014672 1.839464 3.702 
305 735 -6.625873 2.069058 17.165 
315 735 -6.834316 1.881222 10.375 
325 735 -7.373557 0.688737 1.162 
335 735 -7.912797 -0.503748 3.619 
345 735 -5.770570 0.241787 1.037 
355 735 -6.817027 0.701602 1.094 
365 735 -7.863484 1.161417 1.241 
375 735 -8.034509 1.391201 1.222 
385 735 -8.250498 1.013876 1.065 
395 735 -8.341040 1.064651 1.146 
405 735 -8.476707 0.655802 2.465 
415 735 -8.713487 1.057829 1.798 
425 735 -8.085474 1.063079 2.352 
435 735 -8.196618 0.458626 2.138 
445 735 -8.333393 0.320811 2.548 
455 735 -8.206418 0.341001 8.263 
465 735 -8.111315 0.164699 2.756 
475 735 -8.033277 -0.140054 2.024 
485 735 -7.585215 -0.116851 2.858 
495 735 -7.729206 0.098139 1.963 
505 735 -8.404509 0.058783 1.076 
515 735 -8.937950 -0.044807 3.358 
525 735 -9.094301 -0.193760 7.986 
535 735 -8.759852 -0.278780 1.636 
545 735 -8.452318 -0.350747 3.420 
555 735 -8.600967 -0.323568 6.430 
565 735 -9.234988 -0.261766 1.588 
575 735 -9.253541 -0.230520 2.562 
585 735 -9.366773 -0.107808 2.475 
595 735 -9.208787 0.175392 1.425 
605 735 -9.143516 -0.095034 3.086 
615 735 -9.162820 -0.441541 5.655 
625 735 -9.109229 -0.464549 1.913 
635 735 -8.956261 -0.529186 1.185 
645 735 -9.050830 -0.505259 1.038 
655 735 -9.131937 -0.519568 2.299 
665 735 -9.111900 -0.512555 2.609 
675 735 -9.170955 -0.732074 1.668 
685 735 -9.435078 -0.905112 2.846 
695 735 -9.533580 -0.974678 3.407 
705 735 -9.560399 -0.762684 5.816 
715 735 -9.455996 -0.704410 1.237 
725 735 -9.321747 -1.016929 1.341 
735 735 -9.087075 -1.159684 2.674 
745 735 -9.220216 -1.196633 2.316 
755 735 -9.876486 -0.929194 3.171 
765 735 -10.171231 -1.093764 2.076 
775 735 -9.989560 -1.117913 3.773 
785 735 -9.715719 -1.205889 3.119 
795 735 -9.540932 -1.314271 2.408 
805 735 -9.800148 -1.435772 2.619 
815 735 -9.902004 -1.388391 1.929 
825 735 -9.903880 -1.328959 1.873 
835 735 -9.876420 -1.075256 2.052 
845 735 -9.671739 -1.216186 3.566 
855 735 -9.528902 -1.375447 1.254 
865 735 -9.690771 -1.480274 1.239 
875 735 -9.906642 -1.805478 2.245 
885 735 -9.878061 -2.173747 2.754 