TITLE = "B00447"
VARIABLES = "x", "y", "u", "v", "sn"
ZONE T="Frame 0", I=128, J=80
5 795 0.000000 -0.000000 1.032 
15 795 0.000000 -0.000000 1.032 
25 795 -3.414037 -4.045940 1.049 
35 795 -1.781399 -4.843856 1.171 
45 795 1.767277 -9.257608 1.016 
55 795 5.315953 -13.671360 1.067 
65 795 8.911198 -6.463889 1.038 
75 795 6.538611 -4.376480 1.505 
85 795 4.166023 -2.289070 1.068 
95 795 -0.413037 -4.941018 1.267 
105 795 0.191616 -11.680167 1.539 
115 795 -0.706073 -4.455673 1.247 
125 795 -1.603762 2.768820 2.002 
135 795 -1.823707 2.805589 1.006 
145 795 -2.068221 -0.707601 1.286 
155 795 -2.312735 -4.220792 1.260 
165 795 -2.557248 -7.733983 1.066 
175 795 -4.523131 -3.208844 20.000 
185 795 -5.119207 0.416331 11.784 
195 795 -5.695263 1.159011 1.769 
205 795 -6.602714 0.435425 3.520 
215 795 -7.392536 0.259274 4.313 
225 795 -7.530212 0.074398 1.493 
235 795 -7.206063 -0.334910 1.589 
245 795 -6.748855 -0.506195 1.186 
255 795 -6.745844 0.128254 1.878 
265 795 -7.652044 -0.043531 2.438 
275 795 -7.488048 -0.190049 4.034 
285 795 -7.324052 -0.336567 1.227 
295 795 -7.126637 -0.300542 1.318 
305 795 -6.929223 -0.264517 2.214 
315 795 -6.774269 -0.436888 2.856 
325 795 -6.311972 -0.492575 2.988 
335 795 -5.799386 -0.732109 7.156 
345 795 -5.703948 -1.086906 7.992 
355 795 -6.088827 -1.682785 1.537 
365 795 -6.134784 -2.243893 3.170 
375 795 -6.229578 -2.537964 2.416 
385 795 -6.738344 -2.512334 1.126 
395 795 -7.236194 -2.237114 2.012 
405 795 -7.472775 -1.702527 33.761 
415 795 -7.327044 -0.934257 39.979 
425 795 -7.518678 -0.875389 3.410 
435 795 -7.743392 -1.035354 2.297 
445 795 -7.956797 -0.852929 2.575 
455 795 -8.470212 -0.651160 1.776 
465 795 -8.419016 -0.142548 1.523 
475 795 -7.918884 -0.304957 6.632 
485 795 -7.123418 -0.131168 2.613 
495 795 -6.570436 -0.022550 2.036 
505 795 -6.130763 -0.031002 2.147 
515 795 -5.754182 0.262737 1.618 
525 795 -5.642036 0.794477 1.719 
535 795 -5.824449 0.579609 1.405 
545 795 -6.016193 0.108702 1.304 
555 795 -5.791349 -0.005341 1.690 
565 795 -5.301998 -0.554220 2.198 
575 795 -5.275569 -1.703270 2.626 
585 795 -5.624176 -2.469804 1.796 
595 795 -6.422892 -2.295787 3.745 
605 795 -6.632801 -1.493769 2.566 
615 795 -6.760199 -1.334980 2.289 
625 795 -7.256753 -1.269606 2.278 
635 795 -7.328406 -1.359841 2.761 
645 795 -6.460356 -1.427426 1.032 
655 795 -5.388476 -2.022042 2.411 
665 795 -5.222435 -2.397109 2.366 
675 795 -4.991437 -2.359257 2.076 
685 795 -4.955314 -1.954951 1.827 
695 795 -4.919192 -1.550644 2.024 
705 795 -6.045789 -1.996524 1.880 
715 795 -5.742543 -1.841679 1.096 
725 795 -4.340717 -1.228303 1.391 
735 795 -4.589262 -1.240894 2.588 
745 795 -4.837808 -1.253485 1.318 
755 795 -5.220653 -2.591580 2.095 
765 795 -5.729276 -3.249752 2.641 
775 795 -6.100196 -3.003502 3.745 
785 795 -6.164201 -2.201791 1.563 
795 795 -5.817821 -1.107578 1.139 
805 795 -5.533789 -0.309833 1.193 
815 795 -5.743480 -0.279754 1.946 
825 795 -5.796175 -0.555904 2.227 
835 795 -6.133202 -0.863702 2.622 
845 795 -5.817990 -1.437178 1.625 
855 795 -5.502778 -2.010655 1.348 
865 795 -5.187566 -2.584132 1.404 
875 795 -4.871160 -1.916929 1.143 
885 795 -4.378314 -1.839284 1.296 
895 795 -3.885468 -1.761639 1.895 
905 795 -3.854172 -1.159298 1.894 
915 795 -3.822876 -0.556957 2.989 
925 795 -3.791580 0.045383 2.975 
935 795 -4.468279 0.401763 1.792 
945 795 -4.240806 0.218086 1.269 
955 795 -3.802917 -0.021638 3.858 
965 795 -5.464242 -4.231405 4.098 
975 795 -7.125567 -8.441171 1.063 
985 795 -10.471471 -12.970819 1.660 
995 795 -10.763792 -13.015442 1.665 
1005 795 -6.738291 -3.405049 1.101 
1015 795 -6.020649 -1.345926 2.181 
1025 795 -5.334566 -0.994628 2.457 
1035 795 -13.155865 -0.454932 1.048 
1045 795 -14.559289 -0.430627 1.284 
1055 795 -15.962713 -0.406322 1.064 
1065 795 -10.630706 -0.896683 1.010 
1075 795 -5.968392 -1.373400 1.491 
1085 795 -5.972163 -1.268211 1.704 
1095 795 -5.975934 -1.163023 1.144 
1105 795 -6.934222 -1.290957 1.183 
1115 795 -7.892510 -1.418891 1.060 
1125 795 -8.647798 -0.555680 1.620 
1135 795 -9.403086 0.307530 1.179 
1145 795 -10.502050 3.886839 1.205 
1155 795 -11.601015 7.466148 1.298 
1165 795 -12.699979 11.045457 1.024 
1175 795 -13.798944 14.624766 1.324 
1185 795 -14.897908 18.204075 1.611 
1195 795 3.293208 16.130710 1.107 
1205 795 4.433668 3.215959 1.783 
1215 795 6.114092 -2.461468 1.558 
1225 795 5.937449 -6.431278 1.078 
1235 795 4.381997 -4.962904 1.030 
1245 795 2.596034 -4.606394 1.566 
1255 795 0.810070 -4.249885 1.220 
1265 795 -0.975893 -3.893375 1.215 
1275 795 0.000000 -0.000000 1.506 
5 785 -15.008024 -5.102659 1.032 
15 785 -7.586095 -1.306138 1.032 
25 785 0.507905 0.219004 1.049 
35 785 1.569640 -1.083442 1.171 
45 785 1.799981 -4.472373 1.016 
55 785 2.030323 -7.861304 1.067 
65 785 5.761398 -3.616673 1.038 
75 785 8.059825 -0.995565 1.505 
85 785 2.683796 -2.657794 1.068 
95 785 -1.349310 -5.874849 1.267 
105 785 -0.692635 -11.430515 1.539 
115 785 0.827720 -11.260720 1.247 
125 785 -0.049824 0.398087 2.002 
135 785 -0.890480 0.749472 1.006 
145 785 -1.209426 -1.757463 1.286 
155 785 -1.768223 -4.468382 1.260 
165 785 -2.327020 -7.179302 1.066 
175 785 -4.521588 -2.401713 20.000 
185 785 -5.233782 1.256684 11.784 
195 785 -5.775751 1.918635 1.769 
205 785 -6.554105 1.041590 3.520 
215 785 -7.273447 0.661185 4.313 
225 785 -7.381224 0.474026 1.493 
235 785 -7.095427 -0.023272 1.589 
245 785 -6.688534 -0.197107 1.186 
255 785 -6.617109 0.400353 1.878 
265 785 -7.403517 0.140034 2.438 
275 785 -7.513046 -0.247057 4.034 
285 785 -7.018161 -0.191672 1.227 
295 785 -6.944493 0.133515 1.318 
305 785 -6.941478 -0.267165 2.214 
315 785 -6.771592 -0.401730 2.856 
325 785 -6.358171 -0.438695 2.988 
335 785 -5.944990 -0.652747 7.156 
345 785 -5.828746 -0.970300 7.992 
355 785 -6.127506 -1.528179 1.537 
365 785 -6.208862 -2.072920 3.170 
375 785 -6.384376 -2.392065 2.416 
385 785 -6.961047 -2.469025 1.126 
395 785 -7.333530 -2.288261 2.012 
405 785 -7.528433 -1.882283 33.761 
415 785 -7.327309 -1.245234 39.979 
425 785 -7.483230 -1.270287 3.410 
435 785 -7.711426 -1.403707 2.297 
445 785 -7.879072 -1.065582 2.575 
455 785 -8.067471 -0.613080 1.776 
465 785 -8.221836 -0.213686 1.523 
475 785 -7.516422 -0.112769 6.632 
485 785 -7.075686 -0.159630 2.613 
495 785 -6.599043 -0.085427 2.036 
505 785 -6.176839 -0.105633 2.147 
515 785 -5.814382 0.225167 1.618 
525 785 -5.782311 0.727904 1.719 
535 785 -5.989818 0.493062 1.405 
545 785 -6.106860 0.022019 1.304 
555 785 -5.795103 -0.054565 1.690 
565 785 -5.308658 -0.596067 2.198 
575 785 -5.208501 -1.678322 2.626 
585 785 -5.524357 -2.311406 1.796 
595 785 -6.333719 -2.099835 3.745 
605 785 -6.535302 -1.334727 2.566 
615 785 -6.702499 -1.079908 2.289 
625 785 -7.096725 -0.987599 2.278 
635 785 -7.142461 -1.189709 2.761 
645 785 -6.378193 -1.401768 1.032 
655 785 -5.413823 -1.868845 2.411 
665 785 -5.209180 -2.267706 2.366 
675 785 -5.030303 -2.342668 2.076 
685 785 -4.973631 -2.087341 1.827 
695 785 -4.916959 -1.832014 2.024 
705 785 -5.902775 -2.177447 1.880 
715 785 -5.612296 -1.890612 1.096 
725 785 -4.324799 -1.249597 1.391 
735 785 -4.505765 -1.217564 2.588 
745 785 -4.686732 -1.185531 1.318 
755 785 -5.025758 -2.378266 2.095 
765 785 -5.578140 -2.916625 2.641 
775 785 -6.053989 -2.645703 3.745 
785 785 -6.208137 -1.889577 1.563 
795 785 -5.976195 -0.884367 1.139 
805 785 -5.673063 -0.226706 1.193 
815 785 -5.895024 -0.287841 1.946 
825 785 -6.070084 -0.508025 2.227 
835 785 -6.738626 -0.799256 2.622 
845 785 -7.873943 -1.489151 1.625 
855 785 -6.062919 -2.742924 1.348 
865 785 -4.173816 -1.661251 1.404 
875 785 -4.212929 -1.233734 1.143 
885 785 -5.318591 -1.238595 1.296 
895 785 -4.639395 -1.451299 1.895 
905 785 -3.930896 -0.894325 1.894 
915 785 -3.987176 -0.343218 2.989 
925 785 -4.571152 -0.010723 2.975 
935 785 -5.185974 0.343090 1.792 
945 785 -4.858018 0.277990 1.269 
955 785 -3.876426 -0.000577 3.858 
965 785 -4.218981 0.070349 4.098 
975 785 -7.013440 -7.341044 1.063 
985 785 -9.913250 -10.851550 1.660 
995 785 -10.172950 -11.005659 1.665 
1005 785 -6.629579 -2.556078 1.101 
1015 785 -5.532885 -0.699325 2.181 
1025 785 -5.836716 -0.675791 2.457 
1035 785 -9.943773 -0.269480 1.048 
1045 785 -12.100698 -0.592072 1.284 
1055 785 -15.521644 -0.390522 1.064 
1065 785 -8.832697 -1.064746 1.010 
1075 785 -6.458637 -1.372247 1.491 
1085 785 -6.186264 -1.383859 1.704 
1095 785 -5.913891 -1.395472 1.144 
1105 785 -5.580522 -1.032740 1.183 
1115 785 -7.412462 -1.428789 1.060 
1125 785 -7.893065 -1.798435 1.620 
1135 785 -8.018593 -0.573988 1.179 
1145 785 -9.529850 1.674790 1.205 
1155 785 -10.406265 4.132656 1.298 
1165 785 -13.709256 10.223425 1.024 
1175 785 -15.059632 11.595994 1.324 
1185 785 -13.431052 14.705588 1.611 
1195 785 -1.163156 5.460040 1.107 
1205 785 5.935452 -1.810041 1.783 
1215 785 8.268403 -7.296187 1.558 
1225 785 8.758710 -10.713544 1.078 
1235 785 6.972651 -10.366472 1.030 
1245 785 0.836069 -3.826647 1.566 
1255 785 -0.235495 -2.896338 1.220 
1265 785 1.736488 -6.633463 1.215 
1275 785 0.000000 -0.000000 1.506 
5 775 -15.360409 1.377779 1.204 
15 775 -7.167603 3.593455 1.204 
25 775 0.687100 3.174048 1.324 
35 775 0.570809 -0.874770 1.016 
45 775 -0.763171 -1.868213 1.201 
55 775 -2.097151 -2.861656 2.225 
65 775 2.391392 -0.818766 1.099 
75 775 4.737668 -0.124733 1.789 
85 775 1.879923 -2.307460 1.117 
95 775 -1.227040 -4.975999 1.891 
105 775 -0.990147 -9.276006 1.054 
115 775 0.807672 -10.641402 1.637 
125 775 0.470577 -0.418386 1.151 
135 775 -0.413044 -0.525943 1.036 
145 775 -0.036347 -3.609595 1.023 
155 775 -1.727475 -4.090134 1.104 
165 775 -3.418602 -4.570673 1.062 
175 775 -5.001168 -1.242823 1.469 
185 775 -5.454493 2.199758 2.086 
195 775 -5.785130 2.116660 1.905 
205 775 -6.605169 0.831829 1.617 
215 775 -6.995188 0.461433 4.682 
225 775 -7.106879 0.543197 1.883 
235 775 -7.054783 0.185661 1.291 
245 775 -6.498851 0.202466 1.700 
255 775 -6.144581 0.703853 1.999 
265 775 -6.233620 0.690157 1.911 
275 775 -5.740637 0.329228 7.470 
285 775 -5.527505 0.601428 1.135 
295 775 -6.511825 -0.026388 2.065 
305 775 -6.640388 -0.302944 2.307 
315 775 -6.991803 -0.373005 2.605 
325 775 -6.608438 -0.338587 1.999 
335 775 -6.089037 -0.514758 9.938 
345 775 -5.946479 -0.715775 1.517 
355 775 -6.047843 -1.230222 1.740 
365 775 -6.275808 -1.755425 2.549 
375 775 -6.443641 -1.849365 1.794 
385 775 -6.856029 -1.829240 1.537 
395 775 -7.541122 -2.344796 16.902 
405 775 -7.563736 -2.147834 1.837 
415 775 -7.339994 -1.886347 3.172 
425 775 -7.471933 -1.933873 2.877 
435 775 -7.639068 -1.942592 2.764 
445 775 -7.556415 -1.718853 1.715 
455 775 -7.453386 -0.460180 2.329 
465 775 -7.352603 0.137581 1.325 
475 775 -7.113961 0.079420 1.333 
485 775 -6.986181 -0.123355 1.777 
495 775 -6.674257 -0.133001 3.049 
505 775 -6.151725 -0.090755 2.612 
515 775 -5.808706 0.421386 4.036 
525 775 -6.376824 0.546964 1.794 
535 775 -6.613500 0.257256 1.347 
545 775 -6.641314 -0.180623 1.687 
555 775 -5.584124 -0.286087 3.012 
565 775 -5.027773 -0.965683 1.638 
575 775 -5.152690 -1.766847 7.485 
585 775 -5.368599 -1.938073 3.035 
595 775 -5.936452 -1.483637 3.738 
605 775 -6.118737 -0.817348 6.323 
615 775 -6.259991 -0.377072 2.501 
625 775 -6.509308 -0.332802 1.367 
635 775 -6.767720 -0.122414 3.996 
645 775 -6.334199 -0.881689 1.309 
655 775 -5.084272 -1.688729 1.970 
665 775 -5.148636 -2.063923 1.579 
675 775 -5.153035 -2.083495 1.399 
685 775 -5.065598 -2.377116 2.109 
695 775 -5.215540 -2.655236 2.106 
705 775 -5.388491 -2.629616 1.679 
715 775 -5.272942 -2.324128 1.051 
725 775 -4.570820 -1.760904 1.174 
735 775 -3.914514 -1.697489 1.808 
745 775 -4.505746 -1.783896 1.722 
755 775 -4.656288 -2.495217 1.287 
765 775 -5.140904 -2.829668 2.631 
775 775 -5.827282 -2.421014 2.617 
785 775 -6.450493 -1.539568 1.503 
795 775 -6.268260 -0.830521 1.721 
805 775 -5.678385 -0.689567 1.159 
815 775 -5.499413 -0.309739 1.583 
825 775 -6.320366 -0.584889 2.364 
835 775 -6.794478 -0.775645 2.331 
845 775 -7.340895 -1.114414 1.318 
855 775 -2.386999 -0.613029 1.101 
865 775 -3.437077 -0.495307 1.381 
875 775 -4.487154 -0.377584 1.337 
885 775 -5.916933 -0.400968 2.109 
895 775 -5.511782 -1.200090 1.723 
905 775 -5.305542 -0.646167 1.772 
915 775 -5.050744 -0.368915 1.681 
925 775 -6.198170 0.244197 1.832 
935 775 -6.757170 0.419491 2.102 
945 775 -5.475229 0.337894 1.038 
955 775 -3.996664 0.157114 2.112 
965 775 -4.515785 0.239263 8.688 
975 775 -5.034906 0.321412 2.084 
985 775 -8.073836 -5.385079 1.603 
995 775 -8.099851 -5.930691 2.436 
1005 775 -6.111286 -1.331990 5.018 
1015 775 -5.451031 -0.270283 19.486 
1025 775 -6.057832 -0.433957 1.916 
1035 775 -6.731681 -0.084029 2.090 
1045 775 -7.624584 -0.930761 2.166 
1055 775 -7.589466 -1.137377 1.461 
1065 775 -7.034688 -1.232810 1.832 
1075 775 -6.559162 -1.320826 1.309 
1085 775 -6.406167 -1.396009 2.113 
1095 775 -6.147234 -0.914271 14.759 
1105 775 -6.079975 -0.947579 2.050 
1115 775 -6.932413 -1.438688 1.002 
1125 775 -7.586705 -1.772674 1.009 
1135 775 -4.554661 -1.330776 1.002 
1145 775 -5.010340 -0.363410 1.273 
1155 775 -4.889800 0.410714 1.208 
1165 775 -8.182796 1.263142 1.098 
1175 775 -8.849910 -0.967836 1.032 
1185 775 -10.981747 -1.052533 1.248 
1195 775 -5.178490 -3.525562 1.036 
1205 775 4.664161 -6.151279 1.741 
1215 775 11.105632 -9.404774 1.059 
1225 775 8.774636 -11.129079 1.015 
1235 775 6.165668 -11.095870 1.017 
1245 775 2.759015 -7.472512 1.051 
1255 775 1.800559 -6.095225 1.067 
1265 775 1.259575 -6.045231 1.269 
1275 775 1.432288 -6.170208 1.099 
5 765 -15.712795 7.858217 1.157 
15 765 -3.183467 6.724146 1.157 
25 765 2.197382 4.710069 1.255 
35 765 2.830191 0.268735 1.038 
45 765 -3.185271 -3.621709 1.018 
55 765 -2.839331 -2.502181 1.177 
65 765 -0.292144 0.447289 1.718 
75 765 1.415511 0.746098 1.002 
85 765 0.453391 -0.829194 1.847 
95 765 -0.702251 -4.153380 1.183 
105 765 0.160653 -9.860713 1.262 
115 765 0.917361 -8.845549 1.500 
125 765 0.305389 -2.417218 1.077 
135 765 0.064392 -1.801358 1.096 
145 765 -1.429931 -1.777797 1.160 
155 765 -3.649560 -1.407418 1.180 
165 765 -4.866896 -0.238442 1.064 
175 765 -5.640402 0.727279 1.489 
185 765 -5.851234 2.497814 1.061 
195 765 -5.955060 1.446657 1.431 
205 765 -6.273995 0.816587 1.458 
215 765 -6.728029 0.390973 8.664 
225 765 -6.814546 0.559632 1.893 
235 765 -6.589804 0.423178 1.096 
245 765 -6.383511 0.543423 1.104 
255 765 -6.265911 1.019477 1.395 
265 765 -5.902318 0.767985 1.062 
275 765 -5.355545 0.659760 6.125 
285 765 -5.899671 0.503423 2.652 
295 765 -6.513797 0.244906 1.094 
305 765 -6.849765 0.019673 1.024 
315 765 -6.909513 -0.217684 1.308 
325 765 -6.789617 -0.093196 1.966 
335 765 -6.598578 -0.251608 4.180 
345 765 -6.577634 -0.364073 2.393 
355 765 -6.301300 -0.879981 2.343 
365 765 -6.492048 -1.616813 2.063 
375 765 -7.041502 -1.709194 1.537 
385 765 -7.170554 -1.775624 1.737 
395 765 -7.495532 -2.021098 3.211 
405 765 -7.384340 -2.103725 2.316 
415 765 -7.137392 -2.124858 2.382 
425 765 -7.080693 -2.244008 1.330 
435 765 -7.384908 -2.187285 1.410 
445 765 -7.118665 -1.438667 3.563 
455 765 -6.889579 -0.209264 1.875 
465 765 -6.730765 0.262453 1.768 
475 765 -6.518795 0.288235 1.947 
485 765 -6.514321 0.026455 2.114 
495 765 -6.382186 -0.083984 4.360 
505 765 -6.250369 -0.005530 1.360 
515 765 -6.168752 0.335186 2.229 
525 765 -6.779544 0.610116 1.151 
535 765 -6.792933 0.073821 1.112 
545 765 -6.667618 -0.372960 1.007 
555 765 -5.518780 -0.332085 2.318 
565 765 -5.108671 -1.041678 7.650 
575 765 -5.009890 -1.573028 5.216 
585 765 -5.212842 -1.564740 9.458 
595 765 -5.768369 -0.795613 2.136 
605 765 -5.782994 0.032929 1.867 
615 765 -5.610002 0.705158 3.660 
625 765 -5.362014 0.800923 2.547 
635 765 -5.422523 0.013979 2.030 
645 765 -5.982701 -0.767458 1.569 
655 765 -4.911441 -1.318014 1.982 
665 765 -4.777966 -1.404471 2.839 
675 765 -5.221996 -1.957121 2.456 
685 765 -5.276098 -2.762788 1.542 
695 765 -5.161614 -3.248517 3.510 
705 765 -5.177127 -3.259596 3.454 
715 765 -5.052596 -2.774433 1.116 
725 765 -4.936145 -2.308463 1.230 
735 765 -4.645329 -2.208555 1.874 
745 765 -4.324760 -2.382262 6.375 
755 765 -4.425193 -2.647226 4.417 
765 765 -5.152879 -2.623941 2.044 
775 765 -5.714161 -2.241518 2.761 
785 765 -6.259673 -1.426428 4.656 
795 765 -6.243855 -0.945003 3.235 
805 765 -5.683706 -1.152428 1.062 
815 765 -5.799593 -1.264523 1.184 
825 765 -7.034427 -1.292960 2.624 
835 765 -7.858024 -1.031127 1.368 
845 765 -7.823612 -1.300415 1.032 
855 765 -3.649159 -0.787978 1.532 
865 765 -4.590287 -0.785782 1.438 
875 765 -6.040082 -0.731210 1.126 
885 765 -7.220450 -0.189406 2.593 
895 765 -7.303271 -0.474027 1.732 
905 765 -6.732429 -0.533295 2.294 
915 765 -6.600051 -0.388659 2.256 
925 765 -7.263211 -0.109665 1.480 
935 765 -8.613656 -0.355233 1.318 
945 765 -6.547578 -0.157540 1.151 
955 765 -4.082458 -0.000845 1.452 
965 765 -4.828535 0.655159 2.889 
975 765 -5.574612 1.311163 2.068 
985 765 -6.234421 0.081392 1.600 
995 765 -6.026752 -0.855724 1.026 
1005 765 -5.176552 -0.353125 1.932 
1015 765 -5.419136 -0.456232 3.926 
1025 765 -5.524675 -0.404678 1.824 
1035 765 -5.997316 -0.078107 3.082 
1045 765 -6.715646 -0.566170 1.271 
1055 765 -6.714969 -0.876589 1.422 
1065 765 -6.450628 -0.956786 1.031 
1075 765 -6.501624 -1.095895 1.008 
1085 765 -6.631530 -1.068429 23.421 
1095 765 -6.311063 -0.876312 34.723 
1105 765 -5.938399 -0.908701 6.072 
1115 765 -6.075184 -0.960017 1.765 
1125 765 -6.151009 -1.396613 1.509 
1135 765 -4.742562 -1.363830 1.669 
1145 765 -5.686152 -1.224977 1.065 
1155 765 0.494131 -3.633980 1.171 
1165 765 0.989104 -2.162806 1.135 
1175 765 -3.443303 -0.159795 1.086 
1185 765 -4.337480 -0.543258 1.084 
1195 765 -3.993996 -1.225488 1.288 
1205 765 5.145239 -4.009143 1.022 
1215 765 7.706187 -7.846890 1.135 
1225 765 6.489420 -9.592396 1.389 
1235 765 4.360946 -9.004887 1.303 
1245 765 3.227525 -7.588343 1.236 
1255 765 2.603804 -7.043386 1.349 
1265 765 2.911600 -6.224515 1.476 
1275 765 2.269602 -4.330998 1.532 
5 755 2.546896 11.979943 1.001 
15 755 0.800669 9.854838 1.001 
25 755 0.263038 5.167851 1.156 
35 755 1.848249 2.006621 1.106 
45 755 -1.305687 -0.553337 1.298 
55 755 -1.598097 -1.782808 1.010 
65 755 -1.030266 0.776414 1.637 
75 755 0.463506 0.771017 1.921 
85 755 0.220243 -0.376748 1.315 
95 755 -0.364166 -2.891709 1.233 
105 755 0.060957 -7.450041 1.060 
115 755 0.986929 -4.979371 1.039 
125 755 0.792272 -3.460117 1.114 
135 755 -0.106672 -3.128942 1.251 
145 755 -1.527354 -2.244992 1.182 
155 755 -3.150042 0.396217 1.407 
165 755 -4.471219 1.169597 1.381 
175 755 -5.722800 1.745884 3.474 
185 755 -6.098575 2.533668 2.587 
195 755 -6.081551 2.607419 1.979 
205 755 -6.365036 1.394275 2.335 
215 755 -6.476149 0.954220 8.433 
225 755 -6.365381 0.727893 1.170 
235 755 -6.271368 0.516935 1.100 
245 755 -6.268172 0.884381 1.240 
255 755 -6.387240 1.335101 1.166 
265 755 -6.177446 0.323804 1.076 
275 755 -5.626664 0.527360 1.010 
285 755 -6.884580 0.032662 1.983 
295 755 -7.281917 0.121665 2.271 
305 755 -7.291095 0.127792 1.161 
315 755 -7.292384 -0.259551 2.248 
325 755 -7.158328 -0.356358 2.633 
335 755 -7.332186 -0.349102 2.120 
345 755 -7.591717 -0.179015 3.026 
355 755 -7.692900 -0.379538 1.553 
365 755 -7.665650 -1.263415 1.123 
375 755 -7.410637 -1.445480 1.395 
385 755 -7.198674 -1.445729 5.893 
395 755 -7.336780 -1.704333 3.467 
405 755 -7.237143 -2.015961 2.425 
415 755 -6.932371 -2.268024 2.189 
425 755 -7.069765 -2.318062 2.227 
435 755 -7.271021 -2.123092 2.018 
445 755 -7.029864 -1.308889 1.539 
455 755 -6.954154 -0.288268 1.262 
465 755 -6.808681 0.278429 1.335 
475 755 -6.654743 -0.011793 3.584 
485 755 -6.611575 -0.133882 3.425 
495 755 -6.844387 -0.094740 2.710 
505 755 -6.510596 -0.011095 2.636 
515 755 -6.497191 0.283596 2.009 
525 755 -6.811662 0.496886 1.103 
535 755 -6.814355 0.032342 2.634 
545 755 -6.374060 -0.313632 2.393 
555 755 -5.835896 -0.635207 4.031 
565 755 -5.380262 -0.860820 2.969 
575 755 -5.080779 -1.227984 3.965 
585 755 -4.880139 -1.131616 2.601 
595 755 -5.150834 -0.330694 1.637 
605 755 -5.330638 0.713859 4.568 
615 755 -5.122693 1.084635 5.412 
625 755 -5.072933 0.903925 4.281 
635 755 -5.493739 -0.118563 1.741 
645 755 -5.446618 -0.792886 1.487 
655 755 -4.842140 -1.360090 1.668 
665 755 -4.762137 -1.408077 2.226 
675 755 -5.518715 -1.932717 2.471 
685 755 -5.548806 -2.698011 1.207 
695 755 -5.485962 -3.384918 1.977 
705 755 -5.408232 -3.502185 13.802 
715 755 -5.247271 -2.828140 5.980 
725 755 -5.348375 -2.426012 4.824 
735 755 -4.983872 -2.398456 1.731 
745 755 -4.733644 -2.514004 51.385 
755 755 -4.859097 -2.703307 24.692 
765 755 -5.380933 -2.554808 1.241 
775 755 -5.836042 -2.037423 1.894 
785 755 -6.268404 -1.369737 4.568 
795 755 -6.589207 -1.286139 1.995 
805 755 -6.557798 -1.756053 1.160 
815 755 -6.557354 -2.043851 1.004 
825 755 -6.746203 -1.686423 1.350 
835 755 -7.821176 -1.063485 2.135 
845 755 -7.892663 -0.967712 2.476 
855 755 -5.873580 -1.159691 1.390 
865 755 -5.634549 -1.191784 1.349 
875 755 -7.593010 -1.084837 1.283 
885 755 -7.779556 -0.656479 1.703 
895 755 -7.736724 -0.592636 1.411 
905 755 -7.395588 -0.718566 1.538 
915 755 -7.298131 -0.670603 1.168 
925 755 -7.813856 -0.884070 1.613 
935 755 -9.072715 -0.550423 1.055 
945 755 -8.350345 0.047273 1.066 
955 755 -5.695653 0.485970 1.459 
965 755 -5.776259 1.239126 1.688 
975 755 -5.757187 1.778563 3.534 
985 755 -6.148121 1.272939 1.429 
995 755 -4.627848 0.218779 1.045 
1005 755 -4.655067 -0.495107 1.807 
1015 755 -4.324823 -0.473227 2.030 
1025 755 -5.316951 -0.597756 2.141 
1035 755 -5.887030 -0.298139 3.664 
1045 755 -6.499763 -0.298153 2.394 
1055 755 -6.687622 -0.476658 1.217 
1065 755 -6.758981 -0.644867 1.004 
1075 755 -6.727061 -1.033603 1.180 
1085 755 -6.827158 -1.021613 2.011 
1095 755 -6.325916 -1.048902 2.224 
1105 755 -5.796823 -0.869823 20.000 
1115 755 -5.325626 -0.952696 1.015 
1125 755 -5.219180 -1.246290 1.205 
1135 755 -4.930463 -1.396884 3.752 
1145 755 -6.361963 -2.086545 1.929 
1155 755 -2.428919 -3.748709 1.105 
1165 755 2.392190 -5.997115 1.627 
1175 755 1.963304 0.648246 1.078 
1185 755 0.079025 0.162156 1.048 
1195 755 -1.805253 -0.323934 1.266 
1205 755 -1.250912 -1.673632 1.547 
1215 755 4.306742 -6.289005 1.063 
1225 755 4.204203 -8.055713 1.383 
1235 755 3.983063 -8.383523 1.237 
1245 755 2.245029 -7.047777 1.385 
1255 755 2.836457 -6.837782 1.206 
1265 755 4.444546 -5.898697 1.160 
1275 755 3.106915 -2.491789 1.183 
5 745 -4.267573 12.799791 1.230 
15 745 -15.602406 11.835623 1.230 
25 745 -7.656144 6.824544 1.161 
35 745 0.866308 3.744506 1.227 
45 745 0.018590 2.827878 1.215 
55 745 -0.829128 1.911250 1.287 
65 745 -0.946716 1.752929 1.159 
75 745 -1.064304 1.594608 1.478 
85 745 -1.073437 1.361912 1.410 
95 745 -0.714110 -1.381526 1.219 
105 745 -0.146962 -2.533357 1.117 
115 745 1.056497 -1.113194 1.032 
125 745 0.463310 0.152759 1.243 
135 745 -0.294001 0.774517 1.352 
145 745 -1.347769 1.044946 1.033 
155 745 -2.450969 2.230023 1.079 
165 745 -4.364475 2.136323 1.699 
175 745 -5.292562 2.173208 2.413 
185 745 -6.097194 2.853720 3.901 
195 745 -6.112259 2.582022 2.619 
205 745 -6.286449 1.730877 6.577 
215 745 -6.487537 1.194051 20.000 
225 745 -6.301991 0.786795 1.165 
235 745 -6.276005 0.432707 2.740 
245 745 -6.364771 0.254277 1.127 
255 745 -6.597832 0.110115 1.863 
265 745 -6.620027 0.000294 2.702 
275 745 -6.832292 -0.540275 1.343 
285 745 -7.482366 -0.567682 1.925 
295 745 -7.776949 -0.395384 2.757 
305 745 -7.452760 -0.089863 1.706 
315 745 -7.527345 -0.463756 2.253 
325 745 -7.541073 -0.897530 2.173 
335 745 -8.203336 -0.809576 1.264 
345 745 -8.609259 -0.553427 1.539 
355 745 -8.410480 -0.563127 1.833 
365 745 -8.173901 -1.099679 1.346 
375 745 -7.656599 -1.249006 2.874 
385 745 -7.388182 -1.269271 4.279 
395 745 -7.082882 -1.294328 3.061 
405 745 -6.930704 -1.865134 1.486 
415 745 -6.956529 -2.221680 1.350 
425 745 -7.049989 -1.902391 2.148 
435 745 -7.121595 -1.919192 2.406 
445 745 -7.037284 -1.399590 1.611 
455 745 -7.280739 -0.548228 2.640 
465 745 -7.403496 -0.090274 2.101 
475 745 -6.661479 -0.277620 2.164 
485 745 -7.212220 -0.456154 1.322 
495 745 -7.236670 -0.238455 2.189 
505 745 -6.990330 -0.228500 2.408 
515 745 -6.801575 0.237541 2.696 
525 745 -6.813041 0.514510 3.052 
535 745 -6.615848 0.494248 3.506 
545 745 -6.175303 0.309935 2.282 
555 745 -5.830842 -0.072968 2.295 
565 745 -5.708372 -0.147984 1.761 
575 745 -5.820328 -0.486082 1.240 
585 745 -4.963739 -1.029991 1.070 
595 745 -4.889070 -0.234189 1.778 
605 745 -4.814356 0.500740 3.787 
615 745 -4.980396 0.934075 7.410 
625 745 -5.349855 0.689487 2.121 
635 745 -5.564956 -0.251106 1.336 
645 745 -5.427607 -1.069684 1.299 
655 745 -5.307239 -1.277203 1.271 
665 745 -5.428264 -1.263080 1.084 
675 745 -6.224305 -1.868095 2.296 
685 745 -6.200901 -2.369274 2.365 
695 745 -5.699150 -3.107226 1.237 
705 745 -6.023989 -3.652235 2.049 
715 745 -6.015567 -2.974432 1.703 
725 745 -5.559231 -2.720394 1.392 
735 745 -5.105117 -2.692656 3.931 
745 745 -5.038333 -2.768264 18.226 
755 745 -5.169364 -2.918633 5.886 
765 745 -5.786987 -3.167438 1.344 
775 745 -6.107949 -2.538115 1.077 
785 745 -6.544520 -1.673481 1.589 
795 745 -7.822366 -1.013478 1.144 
805 745 -8.445584 -0.918433 1.430 
815 745 -6.975312 -2.254524 1.098 
825 745 -6.457980 -2.079886 2.633 
835 745 -7.784328 -1.095843 4.717 
845 745 -7.756275 -1.200298 13.296 
855 745 -6.846692 -1.548651 1.806 
865 745 -6.524630 -1.749804 1.685 
875 745 -7.721563 -1.643125 1.433 
885 745 -7.776183 -1.148457 1.141 
895 745 -8.046990 -0.648904 1.704 
905 745 -7.458258 -0.938702 2.041 
915 745 -6.920759 -1.106813 1.710 
925 745 -7.839180 -0.983135 1.365 
935 745 -8.441602 -0.419272 1.194 
945 745 -9.663251 0.423557 1.120 
955 745 -6.950533 1.115984 8.236 
965 745 -5.773662 1.618549 5.770 
975 745 -6.051054 1.533236 2.469 
985 745 -5.810551 0.946416 1.487 
995 745 -4.785185 0.114081 1.191 
1005 745 -4.133582 -0.637090 1.027 
1015 745 -4.398294 -0.678654 1.236 
1025 745 -5.017783 -0.545797 7.091 
1035 745 -5.365565 -0.233404 11.099 
1045 745 -5.756051 -0.176298 5.297 
1055 745 -6.229009 -0.147366 2.350 
1065 745 -6.718296 -0.431293 2.343 
1075 745 -6.952498 -0.971311 1.485 
1085 745 -6.981711 -1.054875 2.633 
1095 745 -6.589436 -0.911066 4.954 
1105 745 -6.000793 -0.956016 1.334 
1115 745 -4.576069 -0.945375 1.708 
1125 745 -5.118237 -1.364638 1.151 
1135 745 -5.660406 -1.783902 1.001 
1145 745 -6.610413 -2.158745 20.000 
1155 745 -5.351969 -3.863437 1.075 
1165 745 -1.770341 -5.030131 1.396 
1175 745 1.811287 -6.196824 1.085 
1185 745 0.280671 -0.889116 1.250 
1195 745 0.166183 0.763715 1.144 
1205 745 -0.661196 -0.660009 1.273 
1215 745 -1.105605 -2.303814 1.295 
1225 745 3.865031 -5.434661 1.146 
1235 745 0.630727 -5.309945 1.158 
1245 745 2.011755 -5.559236 1.027 
1255 745 2.519182 -4.213875 1.133 
1265 745 4.758082 -6.822709 1.605 
1275 745 3.944229 -0.652579 1.380 
5 735 -11.082043 13.619639 2.618 
15 735 -18.001960 11.791130 2.618 
25 735 -13.783255 7.828053 1.019 
35 735 -8.165110 -0.699048 1.498 
45 735 -3.481516 0.808821 1.247 
55 735 -0.558497 1.828577 1.166 
65 735 -1.232662 2.464621 1.214 
75 735 -1.906827 3.100664 1.009 
85 735 -1.374450 1.947633 1.254 
95 735 -0.955695 1.687603 1.093 
105 735 -0.361143 2.002569 1.658 
115 735 0.497456 2.644265 1.939 
125 735 0.129272 2.462798 1.335 
135 735 -0.548599 1.003040 1.042 
145 735 -1.615690 3.670962 1.158 
155 735 -2.946217 3.844009 1.269 
165 735 -4.362883 3.655827 1.498 
175 735 -5.446693 3.251956 2.009 
185 735 -6.108769 2.990300 4.425 
195 735 -6.186004 2.464234 2.296 
205 735 -5.960020 1.830525 5.738 
215 735 -6.261316 1.235924 20.000 
225 735 -6.226908 0.719872 1.434 
235 735 -6.294130 0.185345 2.165 
245 735 -6.276075 -0.044154 1.072 
255 735 -6.601033 -0.097231 1.360 
265 735 -6.876583 -0.139524 1.416 
275 735 -7.187199 -0.482284 1.668 
285 735 -7.705925 -0.743390 1.835 
295 735 -7.619493 -0.442094 1.770 
305 735 -7.523143 -0.330710 1.956 
315 735 -7.658738 -0.548146 3.356 
325 735 -8.073207 -1.106739 2.855 
335 735 -8.687478 -1.299291 1.154 
345 735 -8.830772 -0.907351 1.081 
355 735 -8.683541 -0.732991 1.247 
365 735 -8.421807 -1.075833 2.556 
375 735 -7.902560 -1.052531 4.348 
385 735 -7.521713 -1.143846 2.267 
395 735 -7.242821 -1.273175 3.154 
405 735 -7.107266 -1.128468 2.541 
415 735 -7.244426 -2.097543 1.485 
425 735 -7.277089 -1.878470 2.499 
435 735 -7.006024 -1.681458 1.410 
445 735 -7.381889 -1.531421 1.109 
455 735 -7.780758 -1.033909 1.173 
465 735 -7.572794 -0.614578 1.736 
475 735 -6.933419 -0.405213 4.502 
485 735 -6.917977 -0.422542 1.057 
495 735 -7.542644 -0.258549 2.185 
505 735 -7.265463 -0.229298 4.931 
515 735 -7.114467 0.456930 2.393 
525 735 -6.972401 0.860105 20.802 
535 735 -6.594394 1.026884 2.839 
545 735 -6.099323 0.905034 4.473 
555 735 -5.822928 0.625321 3.105 
565 735 -5.636793 0.418995 1.842 
575 735 -5.835179 -0.200474 1.434 
585 735 -5.174255 -1.099025 1.506 
595 735 -5.069939 -0.890792 4.542 
605 735 -4.996578 0.008840 2.242 
615 735 -5.139645 0.645179 5.562 
625 735 -5.513117 0.384758 1.638 
635 735 -6.050754 -0.208850 2.415 
645 735 -5.825569 -0.749071 1.871 
655 735 -5.313176 -0.931456 1.033 
665 735 -5.873949 -1.173794 1.286 
675 735 -6.516206 -1.276813 1.367 
685 735 -6.611324 -2.088577 1.005 
695 735 -6.261396 -2.963531 1.277 
705 735 -6.202887 -3.604976 2.037 
715 735 -6.001030 -3.156494 2.700 
725 735 -5.456625 -2.971319 1.065 
735 735 -5.455542 -3.032423 1.533 
745 735 -5.274827 -3.267757 1.315 
755 735 -5.077319 -3.541567 2.331 
765 735 -6.101007 -3.818826 1.563 
775 735 -6.295258 -2.941576 1.005 
785 735 -6.703443 -1.806697 1.704 
795 735 -8.518407 -0.943755 1.149 
805 735 -10.333370 -0.080813 2.031 
815 735 -6.961252 -1.917378 1.669 
825 735 -6.495301 -2.103437 1.742 
835 735 -6.654636 -1.708035 2.034 
845 735 -6.955955 -1.591438 2.427 
855 735 -7.079490 -2.096972 1.221 
865 735 -6.541339 -2.191433 1.258 
875 735 -6.808210 -1.898138 1.407 
885 735 -7.048599 -1.454293 1.758 
895 735 -7.323104 -0.500023 3.104 