TITLE = "B00480"
VARIABLES = "x", "y", "u", "v", "sn"
ZONE T="Frame 0", I=128, J=80
5 795 0.000000 -0.000000 1.185 
15 795 0.000000 -0.000000 1.185 
25 795 4.546154 14.986593 1.096 
35 795 1.095826 13.532048 1.357 
45 795 -2.354502 12.077504 1.023 
55 795 -5.920063 5.475269 1.142 
65 795 -5.537271 1.375455 1.015 
75 795 -5.154480 -2.724359 1.143 
85 795 -3.756844 -6.027323 1.778 
95 795 -1.765598 -5.828193 1.724 
105 795 0.224879 -1.679411 1.695 
115 795 1.068945 2.085500 1.169 
125 795 0.980261 7.741357 1.119 
135 795 0.219178 7.964554 1.004 
145 795 -0.541905 8.187751 1.518 
155 795 -1.302988 8.410949 1.202 
165 795 -2.064071 8.634146 1.012 
175 795 -3.871979 2.930987 20.000 
185 795 -5.348425 1.892833 1.605 
195 795 -5.883440 1.787728 1.770 
205 795 -5.969880 1.869918 2.947 
215 795 -5.879473 1.838119 1.898 
225 795 -5.789066 1.806321 1.801 
235 795 -6.530099 1.616149 2.852 
245 795 -6.350708 1.698663 2.405 
255 795 -5.904512 1.782151 1.289 
265 795 -5.475923 1.655988 1.344 
275 795 -4.817023 5.617699 1.146 
285 795 -4.158514 10.341737 1.029 
295 795 -4.305530 7.778491 1.033 
305 795 -4.452547 5.215245 1.009 
315 795 -4.599564 2.651998 3.697 
325 795 -4.885066 1.691036 13.379 
335 795 -4.666620 1.774165 2.242 
345 795 -4.580342 1.732714 1.274 
355 795 -4.494064 1.691263 1.042 
365 795 -5.791378 1.600336 4.833 
375 795 -6.118644 1.286953 5.373 
385 795 -6.128457 1.241186 1.856 
395 795 -6.138270 1.195420 1.714 
405 795 -6.978440 2.105162 8.259 
415 795 -7.418330 2.915021 20.000 
425 795 -7.507731 2.835382 20.000 
435 795 -7.651515 2.504399 1.844 
445 795 -7.709547 2.363886 1.927 
455 795 -7.686360 2.257370 1.102 
465 795 -7.512683 2.272909 2.449 
475 795 -7.104719 2.473209 2.699 
485 795 -6.696754 2.673509 3.016 
495 795 -6.412315 3.731620 2.403 
505 795 -6.325417 3.847845 1.830 
515 795 -6.238519 3.964071 1.030 
525 795 -6.151620 4.080296 1.309 
535 795 -6.064722 4.196522 2.517 
545 795 -4.155289 3.289961 2.703 
555 795 -4.111546 2.857377 2.225 
565 795 -4.066540 2.716586 1.262 
575 795 -3.882201 2.498160 1.751 
585 795 -4.070166 2.228367 4.015 
595 795 -4.253544 2.560305 4.256 
605 795 -4.421862 2.643148 2.563 
615 795 -4.762193 2.237493 2.019 
625 795 -5.119141 1.759411 1.440 
635 795 -5.476090 1.281329 1.034 
645 795 -5.138567 2.342194 1.730 
655 795 -4.987326 2.299337 3.218 
665 795 -4.901264 2.054162 2.498 
675 795 -4.955735 2.050644 2.311 
685 795 -5.240418 2.002264 1.912 
695 795 -5.566599 1.789656 3.786 
705 795 -6.050858 1.678218 2.457 
715 795 -6.207934 1.616941 1.959 
725 795 -6.018801 1.644253 2.888 
735 795 -6.020895 1.532312 4.747 
745 795 -6.485118 0.817067 1.080 
755 795 -6.504606 1.102005 1.377 
765 795 -6.561284 2.155436 1.758 
775 795 -7.163158 1.712662 4.103 
785 795 -7.222672 1.166334 1.291 
795 795 -7.282186 0.620007 1.036 
805 795 -7.141784 0.107924 1.346 
815 795 -7.001382 -0.404158 5.246 
825 795 -7.000987 -0.403288 20.000 
835 795 -6.665230 0.075895 35.817 
845 795 -6.391434 0.150355 8.587 
855 795 -7.021512 1.112445 5.294 
865 795 -11.542802 12.635872 2.196 
875 795 -15.035074 6.357221 1.278 
885 795 -18.527346 0.078571 1.221 
895 795 -7.289690 -0.451827 3.760 
905 795 -7.212573 -0.268513 2.417 
915 795 -7.436709 0.137490 1.009 
925 795 -7.568005 0.012753 1.639 
935 795 -8.146339 -0.844424 1.072 
945 795 -8.557731 -1.287039 1.084 
955 795 -8.822197 -1.096552 2.473 
965 795 -9.175241 -0.885906 2.781 
975 795 -9.260836 -0.890785 2.952 
985 795 -9.350676 -1.007863 1.986 
995 795 -9.353998 -1.243243 20.000 
1005 795 -8.979035 -1.159654 3.771 
1015 795 -9.515008 1.485513 1.122 
1025 795 -10.862470 2.266627 1.621 
1035 795 -12.209932 3.047741 2.007 
1045 795 -8.343499 -1.504293 1.084 
1055 795 -7.359369 -0.898310 1.494 
1065 795 -6.375238 -0.292327 1.143 
1075 795 -9.097721 0.617635 1.311 
1085 795 -9.042122 0.803730 1.338 
1095 795 -8.220854 0.806608 2.076 
1105 795 -7.238667 1.713768 1.720 
1115 795 -6.990192 1.306603 1.034 
1125 795 -7.510786 0.561512 1.192 
1135 795 -7.807527 0.808176 1.145 
1145 795 -9.472097 0.946842 1.112 
1155 795 -11.136668 1.085507 1.003 
1165 795 -17.447645 2.670449 1.045 
1175 795 -18.744654 5.980609 1.205 
1185 795 -14.666419 11.379236 1.088 
1195 795 -10.591234 14.519747 1.415 
1205 795 -7.060756 13.005542 1.024 
1215 795 -2.798707 3.919935 1.193 
1225 795 0.466631 0.539508 1.230 
1235 795 0.439103 0.160930 1.377 
1245 795 0.411575 -0.217649 1.174 
1255 795 0.384047 -0.596227 1.663 
1265 795 0.000000 -0.000000 1.364 
1275 795 0.000000 -0.000000 1.407 
5 785 4.774843 6.597056 1.185 
15 785 7.126442 10.121724 1.185 
25 785 9.281344 14.814758 1.096 
35 785 6.389281 13.595065 1.357 
45 785 -0.431701 9.680826 1.023 
55 785 -4.035191 5.535749 1.142 
65 785 -4.958766 1.145348 1.015 
75 785 -4.538556 -4.448276 1.143 
85 785 -3.007353 -5.729525 1.778 
95 785 -1.188498 -6.954174 1.724 
105 785 0.417733 -3.856379 1.695 
115 785 1.040336 -0.917522 1.169 
125 785 0.955533 4.105685 1.119 
135 785 0.893300 8.685724 1.004 
145 785 -0.099660 11.405656 1.518 
155 785 -2.028410 9.747331 1.202 
165 785 -3.234668 5.581399 1.012 
175 785 -4.622411 1.834444 20.000 
185 785 -5.837092 1.393024 1.605 
195 785 -6.370493 1.948441 1.770 
205 785 -6.280430 1.761884 2.947 
215 785 -6.038627 1.658410 1.898 
225 785 -6.061938 1.866017 1.801 
235 785 -6.628917 1.719499 2.852 
245 785 -6.417018 1.784968 2.405 
255 785 -5.933222 1.874266 1.289 
265 785 -5.604023 1.380357 1.344 
275 785 -4.966022 3.682127 1.146 
285 785 -4.429755 6.174564 1.029 
295 785 -4.397110 6.232846 1.033 
305 785 -4.553387 4.161416 1.009 
315 785 -4.709663 2.089985 3.697 
325 785 -4.948012 1.315825 13.379 
335 785 -4.617582 1.698219 2.242 
345 785 -4.550116 1.688518 1.274 
355 785 -4.482650 1.678818 1.042 
365 785 -5.693237 1.601716 4.833 
375 785 -6.037565 1.218146 5.373 
385 785 -6.109525 1.157419 1.856 
395 785 -6.181486 1.096692 1.714 
405 785 -6.897822 2.075908 8.259 
415 785 -7.268482 3.022740 20.000 
425 785 -7.385106 3.200049 20.000 
435 785 -7.619705 2.921778 1.844 
445 785 -7.723496 2.791434 1.927 
455 785 -7.667869 2.675148 1.102 
465 785 -7.448343 2.642185 2.449 
475 785 -7.058116 2.605512 2.699 
485 785 -6.301043 2.653973 3.016 
495 785 -5.606983 3.282588 2.403 
505 785 -4.632066 3.974635 1.830 
515 785 -5.699118 3.874202 1.030 
525 785 -5.888117 3.830572 1.309 
535 785 -5.170924 3.150600 2.517 
545 785 -3.955801 2.715539 2.703 
555 785 -4.337316 2.703771 2.225 
565 785 -4.264211 2.595206 1.262 
575 785 -4.051250 2.441750 1.751 
585 785 -4.239753 2.165224 4.015 
595 785 -4.409270 2.425759 4.256 
605 785 -4.578189 2.373786 2.563 
615 785 -4.747390 2.112355 2.019 
625 785 -5.423017 1.372138 1.440 
635 785 -5.355884 1.196211 1.034 
645 785 -4.961867 2.178804 1.730 
655 785 -4.842153 2.118845 3.218 
665 785 -4.787772 1.918015 2.498 
675 785 -4.870509 1.985929 2.311 
685 785 -5.130883 1.900931 1.912 
695 785 -5.448831 1.702613 3.786 
705 785 -5.877047 1.680396 2.457 
715 785 -6.044391 1.652750 1.959 
725 785 -5.843415 1.729181 2.888 
735 785 -5.840065 1.684961 4.747 
745 785 -6.333471 1.116163 1.080 
755 785 -6.468629 1.289645 1.377 
765 785 -6.635013 2.225965 1.758 
775 785 -7.288945 1.659141 4.103 
785 785 -8.292098 1.116804 1.291 
795 785 -7.652446 0.632682 1.036 
805 785 -6.653969 0.107003 1.346 
815 785 -7.096432 -0.405919 5.246 
825 785 -6.970910 -0.379590 20.000 
835 785 -6.700753 0.060362 35.817 
845 785 -6.448739 0.281218 8.587 
855 785 -7.043366 1.193737 5.294 
865 785 -9.719525 6.955449 2.196 
875 785 -11.490313 3.715582 1.278 
885 785 -13.261101 0.475716 1.221 
895 785 -7.483286 -0.342670 3.760 
905 785 -7.379422 -0.388972 2.417 
915 785 -7.655494 0.003070 1.009 
925 785 -7.847619 -0.143101 1.639 
935 785 -8.453163 -0.968595 1.072 
945 785 -8.799580 -1.293930 1.084 
955 785 -8.960863 -1.143247 2.473 
965 785 -9.208548 -1.008420 2.781 
975 785 -9.214289 -1.061659 2.952 
985 785 -9.297118 -1.110019 1.986 
995 785 -9.340976 -1.339273 20.000 
1005 785 -8.910641 -1.542531 3.771 
1015 785 -9.463138 1.015790 1.122 
1025 785 -10.021257 1.053959 1.621 
1035 785 -10.579376 1.092128 2.007 
1045 785 -8.476139 -1.612397 1.084 
1055 785 -7.651432 -2.782816 1.494 
1065 785 -7.941445 0.012591 1.143 
1075 785 -9.386084 1.078874 1.311 
1085 785 -9.241398 1.182610 1.338 
1095 785 -8.366413 1.068120 2.076 
1105 785 -7.450884 1.908150 1.720 
1115 785 -6.974630 1.429574 1.034 
1125 785 -7.378496 0.643756 1.192 
1135 785 -7.730531 1.081597 1.145 
1145 785 -7.230509 1.105171 1.112 
1155 785 -11.056373 1.201674 1.003 
1165 785 -16.164849 2.311672 1.045 
1175 785 -17.025148 4.625596 1.205 
1185 785 -13.463974 9.190582 1.088 
1195 785 -10.330972 12.123043 1.415 
1205 785 -8.181847 8.259412 1.024 
1215 785 -5.103329 3.265318 1.193 
1225 785 -1.881431 0.214219 1.230 
1235 785 -0.848386 0.157841 1.377 
1245 785 0.184659 0.101464 1.174 
1255 785 0.283256 -0.041191 1.663 
1265 785 0.594969 -0.282602 1.364 
1275 785 0.000000 -0.000000 1.407 
5 775 14.063547 12.463909 1.049 
15 775 13.453829 13.145047 1.049 
25 775 12.524776 11.898460 1.050 
35 775 9.483837 7.641413 1.044 
45 775 -0.194498 3.196767 1.120 
55 775 -3.683459 3.399217 1.196 
65 775 -3.640486 0.986650 1.381 
75 775 -2.764557 -2.612591 1.087 
85 775 -2.257862 -5.431728 1.219 
95 775 -0.517919 -5.143645 1.430 
105 775 0.275792 -3.244957 1.268 
115 775 0.455698 -0.918020 1.377 
125 775 0.766611 0.187215 1.317 
135 775 0.370905 1.005977 1.542 
145 775 -0.208285 5.487240 1.002 
155 775 -4.108999 5.717851 1.044 
165 775 -4.229123 2.149892 4.352 
175 775 -5.619308 1.199027 20.000 
185 775 -6.446297 1.229987 2.474 
195 775 -6.475626 1.709586 2.520 
205 775 -6.404432 1.653566 2.850 
215 775 -6.362999 1.773014 1.082 
225 775 -6.298545 2.052063 1.446 
235 775 -6.417225 2.283209 1.199 
245 775 -6.222404 2.118617 1.762 
255 775 -5.601384 1.967132 1.465 
265 775 -5.473693 1.524930 2.762 
275 775 -5.115022 1.746554 1.014 
285 775 -4.678777 2.338510 1.107 
295 775 -4.411987 2.845686 1.240 
305 775 -4.635706 2.123954 1.306 
315 775 -4.874807 1.422092 6.368 
325 775 -4.877037 1.133852 24.954 
335 775 -4.634068 1.639348 4.274 
345 775 -4.603136 1.819081 1.201 
355 775 -4.572205 1.998814 1.541 
365 775 -5.710464 1.869990 2.243 
375 775 -6.142062 1.177858 2.848 
385 775 -6.163768 0.535222 1.302 
395 775 -6.264101 0.301276 1.294 
405 775 -6.955560 1.405464 2.629 
415 775 -7.048516 2.787881 25.492 
425 775 -6.947925 3.189665 11.198 
435 775 -7.228564 3.017812 1.521 
445 775 -7.503466 2.804823 1.053 
455 775 -7.459772 2.678793 1.341 
465 775 -7.196087 2.819967 7.805 
475 775 -6.792053 2.815857 10.953 
485 775 -6.104427 2.589143 3.092 
495 775 -5.169992 2.607388 1.023 
505 775 -5.013521 2.716190 3.803 
515 775 -4.857050 2.824992 4.979 
525 775 -5.373804 2.668840 1.276 
535 775 -5.222870 2.354815 1.542 
545 775 -4.970605 2.398385 1.906 
555 775 -4.718339 2.441956 2.728 
565 775 -4.670031 2.509672 2.158 
575 775 -4.549022 2.298084 1.906 
585 775 -4.508623 2.020973 3.394 
595 775 -4.713862 2.059405 20.000 
605 775 -4.734515 2.104424 1.480 
615 775 -4.739295 1.919378 2.228 
625 775 -4.918170 1.681931 3.339 
635 775 -4.943837 1.206214 1.513 
645 775 -4.799068 1.546014 1.677 
655 775 -4.706256 1.816053 2.665 
665 775 -4.520571 1.634586 3.193 
675 775 -4.699941 1.827990 3.050 
685 775 -5.079299 1.890148 2.030 
695 775 -5.501677 1.833099 2.700 
705 775 -5.753031 1.396628 1.709 
715 775 -5.762693 1.434346 1.448 
725 775 -5.368554 1.841842 2.125 
735 775 -5.418592 1.838491 2.541 
745 775 -5.804066 1.416732 3.278 
755 775 -6.197602 1.546396 2.941 
765 775 -7.010667 1.997066 2.355 
775 775 -7.926930 1.407820 1.711 
785 775 -8.590949 1.030021 1.571 
795 775 -8.661445 0.388806 1.375 
805 775 -7.297686 0.147849 1.501 
815 775 -7.213017 -0.335604 12.421 
825 775 -6.977345 -0.341988 16.724 
835 775 -6.564497 -0.045777 2.906 
845 775 -6.315026 0.078619 6.064 
855 775 -6.743770 0.415327 3.016 
865 775 -7.699781 0.668521 1.077 
875 775 -7.679749 0.404572 1.040 
885 775 -7.659717 0.140624 1.435 
895 775 -7.342134 -0.805432 4.240 
905 775 -7.529443 -0.415369 1.812 
915 775 -7.944587 -0.116072 1.153 
925 775 -8.687699 -0.328438 1.979 
935 775 -9.319478 -0.839018 1.590 
945 775 -9.372367 -1.184953 1.617 
955 775 -9.204104 -1.219890 3.433 
965 775 -8.829409 -1.349306 1.299 
975 775 -8.694111 -1.343208 2.656 
985 775 -8.654758 -1.398372 2.468 
995 775 -8.520630 -1.653879 2.370 
1005 775 -8.406206 -1.654452 1.011 
1015 775 -8.825532 -0.243420 1.839 
1025 775 -10.549342 0.934820 1.055 
1035 775 -10.664959 0.412952 1.632 
1045 775 -9.410439 -1.085946 2.067 
1055 775 -8.987436 -1.226319 1.642 
1065 775 -9.507653 0.317508 1.527 
1075 775 -9.588111 1.871347 1.482 
1085 775 -9.141216 1.890326 1.147 
1095 775 -8.367665 1.732337 1.666 
1105 775 -8.193320 2.183938 1.549 
1115 775 -7.001298 2.136189 3.171 
1125 775 -7.518245 1.836735 20.000 
1135 775 -7.515187 1.525011 1.556 
1145 775 -7.512128 1.213287 1.331 
1155 775 -9.735743 1.247991 1.166 
1165 775 -13.127239 0.569500 1.372 
1175 775 -13.593468 2.758710 1.727 
1185 775 -7.664090 6.206862 1.185 
1195 775 -2.625491 8.721719 1.157 
1205 775 -5.025595 6.139588 1.053 
1215 775 -6.912211 2.491947 1.586 
1225 775 -3.892465 -0.225781 1.457 
1235 775 -2.094771 0.304132 1.028 
1245 775 -0.297077 0.834045 1.413 
1255 775 0.182464 0.513844 1.335 
1265 775 0.247607 0.297415 1.818 
1275 775 -0.304187 -0.537256 1.786 
5 765 17.080914 12.921799 1.350 
15 765 12.842181 11.389821 1.350 
25 765 14.467557 10.949219 1.601 
35 765 10.711274 7.941007 1.117 
45 765 1.784336 5.510199 1.014 
55 765 -1.902570 0.914064 1.139 
65 765 -1.683463 -0.334453 1.248 
75 765 -0.557413 0.688675 1.114 
85 765 -0.709995 -1.298268 1.272 
95 765 0.275770 -1.892018 1.054 
105 765 0.737707 -1.347572 1.200 
115 765 0.246384 -1.697844 1.154 
125 765 0.713119 -1.739884 1.723 
135 765 0.315915 -0.074625 1.968 
145 765 -0.693969 0.981487 1.140 
155 765 -4.818728 3.658698 1.198 
165 765 -5.477057 1.449125 1.059 
175 765 -6.309089 1.316407 20.000 
185 765 -6.716554 1.611548 3.348 
195 765 -6.580650 1.752283 2.460 
205 765 -6.391231 1.534567 14.507 
215 765 -6.633620 1.813926 2.379 
225 765 -6.447931 2.153506 1.576 
235 765 -6.386302 2.289831 1.314 
245 765 -6.133399 2.311155 1.665 
255 765 -5.584607 2.091305 1.085 
265 765 -5.269823 1.863441 1.550 
275 765 -5.237438 2.036877 2.506 
285 765 -5.114151 2.006860 2.415 
295 765 -5.086502 2.126234 2.425 
305 765 -5.140621 1.714022 1.364 
315 765 -5.194114 1.294683 3.868 
325 765 -4.967855 1.475602 3.770 
335 765 -4.757022 1.814223 2.371 
345 765 -4.738302 2.124703 2.267 
355 765 -4.825151 2.431636 2.313 
365 765 -5.015447 2.166232 1.232 
375 765 -5.940070 1.323856 1.604 
385 765 -6.607728 0.393604 2.078 
395 765 -6.721893 0.335023 2.918 
405 765 -6.891282 0.752574 1.822 
415 765 -6.829465 2.123013 1.156 
425 765 -6.405046 2.713753 1.461 
435 765 -6.981241 2.684333 1.215 
445 765 -7.199628 2.449052 1.635 
455 765 -7.148130 2.222839 1.067 
465 765 -6.826865 2.405052 1.956 
475 765 -6.500240 2.572207 4.057 
485 765 -6.059714 2.466541 59.860 
495 765 -5.166803 2.089576 7.247 
505 765 -4.998953 2.191376 13.720 
515 765 -4.831104 2.293176 6.062 
525 765 -5.483896 2.425144 1.895 
535 765 -5.180107 1.944484 1.271 
545 765 -5.135869 1.984039 1.620 
555 765 -5.091631 2.023594 4.169 
565 765 -4.938440 2.214330 3.728 
575 765 -4.642803 2.172093 3.382 
585 765 -4.724609 2.025925 2.821 
595 765 -4.811299 1.932346 17.263 
605 765 -4.680463 1.685206 6.050 
615 765 -4.545277 1.511924 2.782 
625 765 -4.606924 1.439974 6.457 
635 765 -4.503379 1.273426 2.434 
645 765 -4.446275 1.192544 1.841 
655 765 -4.301772 1.287445 2.293 
665 765 -4.702060 1.127211 2.393 
675 765 -5.019529 1.535752 2.358 
685 765 -5.019555 1.649209 4.618 
695 765 -5.113214 1.301352 2.380 
705 765 -5.300139 1.184307 1.803 
715 765 -5.363553 1.331158 20.000 
725 765 -5.289103 1.604830 3.353 
735 765 -5.538957 1.644046 2.519 
745 765 -5.762096 1.549772 4.587 
755 765 -6.155231 1.576481 3.091 
765 765 -6.782706 1.285024 1.729 
775 765 -7.449958 1.179453 1.474 
785 765 -8.437828 0.953570 3.096 
795 765 -8.617872 0.650843 20.000 
805 765 -7.697698 0.451926 4.389 
815 765 -7.092984 0.191356 2.895 
825 765 -7.046367 0.064232 5.094 
835 765 -6.731609 0.206199 3.951 
845 765 -6.559279 0.047186 2.311 
855 765 -6.539787 -0.315923 2.295 
865 765 -7.312431 -0.138450 1.024 
875 765 -7.206755 -0.470636 1.356 
885 765 -7.101080 -0.802822 1.794 
895 765 -7.395449 -0.796344 2.159 
905 765 -7.689817 -0.789866 1.075 
915 765 -8.080622 -0.371960 1.037 
925 765 -8.761669 -0.912778 16.030 
935 765 -9.414171 -1.079173 3.774 
945 765 -9.539096 -1.217270 2.883 
955 765 -9.106591 -1.426232 1.610 
965 765 -8.539365 -1.713470 1.456 
975 765 -8.246516 -1.758472 1.703 
985 765 -7.952432 -1.690120 1.357 
995 765 -7.888891 -1.733880 1.506 
1005 765 -7.879060 -1.603729 3.559 
1015 765 -8.095317 -1.387710 9.627 
1025 765 -9.427643 -0.680288 3.845 
1035 765 -10.249194 -0.357749 2.017 
1045 765 -10.344739 -0.559495 2.017 
1055 765 -10.050726 -0.124479 1.769 
1065 765 -9.384805 1.084422 2.630 
1075 765 -9.074547 2.200270 2.328 
1085 765 -8.370380 2.501869 4.573 
1095 765 -8.148957 2.455683 2.235 
1105 765 -7.660457 2.937368 2.005 
1115 765 -6.976431 2.435983 20.000 
1125 765 -6.956283 2.130609 1.019 
1135 765 -7.254208 1.673559 3.139 
1145 765 -7.552134 1.216510 1.057 
1155 765 -8.415114 1.294308 1.152 
1165 765 -9.479506 1.479480 1.033 
1175 765 -7.861194 1.429658 1.580 
1185 765 -4.735582 1.697401 1.239 
1195 765 2.671395 4.763673 1.287 
1205 765 -0.191079 3.840076 1.275 
1215 765 -6.066130 1.754555 1.119 
1225 765 -2.965193 -0.144113 1.027 
1235 765 -4.648638 0.283488 1.012 
1245 765 -1.770069 2.583616 1.090 
1255 765 0.127856 2.711511 1.110 
1265 765 0.033466 2.039421 1.246 
1275 765 -0.057863 0.622367 1.313 
5 755 13.729596 9.913426 1.101 
15 755 12.230533 9.634594 1.101 
25 755 11.675396 8.879360 1.503 
35 755 10.284488 8.443473 1.416 
45 755 3.185415 8.081557 1.417 
55 755 -0.547136 0.766452 1.011 
65 755 0.228942 -0.287842 1.497 
75 755 0.859698 -2.897495 1.070 
85 755 0.593594 -4.660105 1.156 
95 755 -0.082966 0.301252 1.142 
105 755 0.456856 -0.507313 1.327 
115 755 0.657963 -0.928814 1.025 
125 755 -0.006241 -0.869205 1.014 
135 755 -0.670445 -0.809596 1.014 
145 755 -1.263846 1.188981 1.108 
155 755 -5.528458 1.599544 1.051 
165 755 -6.617491 1.610866 1.069 
175 755 -6.931118 1.916376 2.382 
185 755 -6.640056 1.987985 1.609 
195 755 -6.312768 1.391155 1.935 
205 755 -6.209167 1.390328 4.718 
215 755 -6.501247 1.659006 2.486 
225 755 -6.475819 1.977386 1.802 
235 755 -6.308304 2.130458 1.559 
245 755 -5.995751 2.138612 1.883 
255 755 -5.578873 2.032352 2.237 
265 755 -5.065953 2.201951 1.428 
275 755 -5.359854 2.327199 1.405 
285 755 -5.401168 2.195769 2.540 
295 755 -5.534460 2.059417 1.602 
305 755 -5.883864 1.758946 1.873 
315 755 -5.718296 1.864780 1.730 
325 755 -5.452495 1.859434 1.627 
335 755 -5.136194 1.962206 2.109 
345 755 -5.134936 2.292363 3.645 
355 755 -5.176525 2.456650 1.998 
365 755 -5.314997 2.308610 1.300 
375 755 -6.045755 1.729845 1.195 
385 755 -6.618944 1.133142 1.892 
395 755 -6.778200 1.074762 2.817 
405 755 -6.825382 1.514944 1.749 
415 755 -6.716581 1.749568 2.464 
425 755 -6.435960 2.050631 1.447 
435 755 -6.630139 1.909879 1.111 
445 755 -7.250979 2.124093 1.352 
455 755 -7.090343 1.450910 1.213 
465 755 -6.608393 1.524896 2.507 
475 755 -6.313925 2.050605 2.347 
485 755 -5.910650 2.074058 3.635 
495 755 -5.506729 1.736400 1.720 
505 755 -4.957448 1.663238 1.130 
515 755 -4.886296 2.009842 2.611 
525 755 -5.226228 2.078339 2.339 
535 755 -5.287541 1.783597 2.145 
545 755 -5.233804 1.615912 2.006 
555 755 -5.207132 1.645765 3.789 
565 755 -4.930843 1.945523 2.143 
575 755 -4.555942 2.035530 2.775 
585 755 -4.750266 1.973280 3.505 
595 755 -4.749341 1.913679 7.489 
605 755 -4.591319 1.631962 2.458 
615 755 -4.572987 1.487280 1.243 
625 755 -4.547845 1.410895 1.538 
635 755 -4.407170 1.332048 1.580 
645 755 -4.227646 1.347591 1.431 
655 755 -4.251227 1.383656 1.809 
665 755 -4.454970 1.360333 2.152 
675 755 -4.449344 1.582943 72.830 
685 755 -4.690306 1.614697 18.745 
695 755 -4.955990 1.369546 5.998 
705 755 -5.110164 1.235340 2.238 
715 755 -5.148422 1.343966 6.770 
725 755 -5.117046 1.578586 3.039 
735 755 -5.244726 1.604702 3.847 
745 755 -5.415409 1.458120 8.522 
755 755 -5.550508 1.319152 8.152 
765 755 -5.849370 0.991103 2.607 
775 755 -6.401929 0.994589 1.384 
785 755 -7.281999 1.180649 3.417 
795 755 -7.848590 1.110379 8.696 
805 755 -7.340517 0.911612 3.749 
815 755 -7.159622 0.621664 2.559 
825 755 -6.930393 0.380874 3.241 
835 755 -6.741041 0.164897 13.782 
845 755 -6.651471 -0.004239 5.283 
855 755 -6.876616 -0.227120 2.879 
865 755 -7.130951 -0.310822 1.326 
875 755 -6.972232 -0.406594 1.357 
885 755 -7.029747 -0.805502 2.123 
895 755 -7.212949 -0.960925 1.921 
905 755 -7.396151 -1.116348 1.075 
915 755 -7.285227 -1.328155 1.232 
925 755 -8.256468 -1.431311 4.248 
935 755 -8.753969 -1.441865 42.885 
945 755 -8.784470 -1.224042 3.346 
955 755 -8.441037 -1.343182 3.623 
965 755 -8.169759 -1.519833 2.871 
975 755 -8.006879 -1.481491 2.887 
985 755 -7.908211 -1.706745 2.955 
995 755 -7.561150 -1.753445 1.141 
1005 755 -7.409959 -1.672739 7.008 
1015 755 -7.667035 -1.560439 3.087 
1025 755 -8.659976 -1.301309 5.788 
1035 755 -9.359523 -1.292472 2.664 
1045 755 -9.828430 -0.827046 7.535 
1055 755 -9.631455 0.606112 1.228 
1065 755 -9.261957 1.851336 2.224 
1075 755 -8.115761 2.472025 4.807 
1085 755 -7.645619 2.880503 8.195 
1095 755 -7.522983 3.036214 4.561 
1105 755 -7.522121 3.269333 3.631 
1115 755 -6.951564 2.735778 3.511 
1125 755 -7.650809 1.744619 2.172 
1135 755 -7.305190 1.968763 3.285 
1145 755 -6.959571 2.192906 7.211 
1155 755 -5.725716 2.557314 1.131 
1165 755 -5.127873 2.598585 1.190 
1175 755 -2.705936 1.631639 1.628 
1185 755 -0.212376 0.999276 1.689 
1195 755 8.303959 1.725853 1.158 
1205 755 8.889218 1.185027 1.299 
1215 755 -4.013648 0.463589 1.019 
1225 755 -2.658379 -0.034775 1.219 
1235 755 -4.606325 1.510168 1.011 
1245 755 -3.243062 4.333188 1.070 
1255 755 0.547129 5.010084 1.199 
1265 755 0.573219 3.461476 1.061 
1275 755 0.188461 1.781990 1.047 
5 745 11.860859 8.732875 2.103 
15 745 9.969231 7.856931 2.103 
25 745 8.883236 6.809501 1.532 
35 745 5.841021 7.610555 1.263 
45 745 2.674595 7.592971 1.226 
55 745 0.997695 3.742644 1.101 
65 745 1.617263 0.271160 1.276 
75 745 1.875592 -4.545351 1.053 
85 745 1.535337 -8.566053 1.229 
95 745 0.757570 -4.495982 1.238 
105 745 -0.020198 -0.425910 1.162 
115 745 0.208870 -2.008065 1.299 
125 745 -0.267448 -1.390327 1.835 
135 745 -1.860404 -0.033120 1.028 
145 745 -4.744313 1.193024 3.512 
155 745 -6.039843 1.467340 3.107 
165 745 -6.391284 1.682039 2.270 
175 745 -6.104509 1.775260 1.296 
185 745 -5.962089 2.070997 1.008 
195 745 -5.428143 1.362978 2.119 
205 745 -5.734555 1.471652 2.764 
215 745 -5.901142 1.585372 2.318 
225 745 -5.648921 1.831747 1.889 
235 745 -5.630541 1.757572 2.052 
245 745 -5.536791 1.603849 1.989 
255 745 -5.231112 1.904808 1.382 
265 745 -5.177074 2.215397 1.015 
275 745 -5.376615 2.385196 1.009 
285 745 -5.364357 2.097353 1.400 
295 745 -5.421107 2.049477 1.006 
305 745 -5.734056 1.984315 9.738 
315 745 -5.746126 2.201590 1.609 
325 745 -5.645745 2.167310 1.692 
335 745 -5.621423 1.930047 1.702 
345 745 -5.793583 2.075857 1.960 
355 745 -5.911398 2.502919 1.810 
365 745 -5.947127 2.313553 1.213 
375 745 -6.462739 1.862660 1.587 
385 745 -6.860107 1.932150 1.592 
395 745 -6.905705 2.041924 1.139 
405 745 -6.759481 2.277315 1.424 
415 745 -6.565368 1.967514 1.529 
425 745 -6.466873 1.387510 1.462 
435 745 -6.642835 1.223748 2.655 
445 745 -6.910066 1.098478 2.075 
455 745 -7.087240 0.814916 1.280 
465 745 -6.976510 1.201162 2.237 
475 745 -6.409610 1.848113 3.133 
485 745 -5.721853 1.996119 2.225 
495 745 -5.424831 1.755167 1.136 
505 745 -5.427372 1.316255 1.209 
515 745 -5.462326 1.225720 1.046 
525 745 -5.401709 1.513618 2.955 
535 745 -5.592906 1.357144 1.781 
545 745 -4.667013 1.208095 2.131 
555 745 -4.480229 1.842519 1.780 
565 745 -4.623906 1.997722 2.374 
575 745 -4.555779 1.778990 1.608 
585 745 -4.781888 1.875469 1.808 
595 745 -4.776577 1.901138 2.846 
605 745 -4.609990 1.629661 2.028 
615 745 -4.600697 1.462636 5.277 
625 745 -4.891127 1.546796 1.926 
635 745 -4.792312 1.427371 1.037 
645 745 -4.557034 1.324934 1.016 
655 745 -4.444819 1.519184 3.185 
665 745 -4.371503 1.717622 2.098 
675 745 -4.371479 1.664640 181.087 
685 745 -4.619991 1.575370 8.357 
695 745 -4.921740 1.381190 2.640 
705 745 -5.024723 1.300641 2.418 
715 745 -5.013146 1.381634 1.888 
725 745 -4.969970 1.559375 1.889 
735 745 -4.972538 1.418839 2.999 
745 745 -5.102696 1.325761 3.735 
755 745 -5.027112 1.158853 3.262 
765 745 -5.143125 0.974493 2.746 
775 745 -5.465350 1.045568 4.808 
785 745 -5.982200 1.164731 3.868 
795 745 -6.785426 1.072764 2.598 
805 745 -7.079722 0.774281 4.334 
815 745 -7.098097 0.830135 2.437 
825 745 -6.775525 0.398877 5.499 
835 745 -6.759116 0.189600 6.503 
845 745 -6.746785 0.165075 20.000 
855 745 -7.018953 0.083255 2.188 
865 745 -7.040114 -0.096410 2.241 
875 745 -6.994550 -0.214508 1.778 
885 745 -6.909084 -0.504514 2.681 
895 745 -7.003551 -0.815004 5.648 
905 745 -6.821635 -1.047348 1.491 
915 745 -6.802842 -1.294247 1.375 
925 745 -7.528246 -1.492158 4.205 
935 745 -8.036331 -1.434632 7.582 
945 745 -8.261074 -1.132048 2.034 
955 745 -8.060185 -1.027965 2.550 
965 745 -7.735622 -1.198396 1.868 
975 745 -7.519723 -1.398967 1.857 
985 745 -7.263818 -1.578063 1.138 
995 745 -6.960056 -1.596287 1.225 
1005 745 -6.874409 -1.621223 2.008 
1015 745 -7.150993 -1.464863 2.373 
1025 745 -7.791292 -1.381229 6.743 
1035 745 -8.100978 -1.320636 7.349 
1045 745 -7.987684 -0.702271 20.000 
1055 745 -7.828938 0.778833 1.662 
1065 745 -7.291890 2.204783 2.237 
1075 745 -6.758166 3.090273 2.358 
1085 745 -6.782139 3.276720 2.714 
1095 745 -7.014654 3.473866 1.505 
1105 745 -7.406241 3.779273 1.463 
1115 745 -7.276792 2.920419 1.301 
1125 745 -7.168357 1.829564 2.541 
1135 745 -7.309829 1.787438 2.199 
1145 745 -5.836598 2.409317 2.028 
1155 745 -3.855464 3.290259 1.108 
1165 745 -1.268544 3.916781 1.359 
1175 745 2.048904 3.585484 1.478 
1185 745 4.432142 1.013703 1.521 
1195 745 7.875233 0.551409 1.092 
1205 745 9.056959 -0.282489 1.022 
1215 745 -1.628926 -1.093667 1.399 
1225 745 -2.351564 0.074562 1.004 
1235 745 -4.564012 2.736847 1.035 
1245 745 -2.822266 4.735361 1.145 
1255 745 0.342064 4.443986 1.333 
1265 745 0.927412 3.755019 1.697 
1275 745 0.905973 2.013952 1.639 
5 735 10.376086 8.726177 1.047 
15 735 9.753244 2.442334 1.047 
25 735 7.555341 2.413291 1.198 
35 735 5.724714 0.630530 1.143 
45 735 3.474710 -2.346733 1.008 
55 735 2.019754 -2.366482 1.381 
65 735 2.016020 -2.836915 1.207 
75 735 2.108283 -7.771997 1.078 
85 735 0.173386 -10.445164 1.215 
95 735 -0.962789 -9.058251 1.070 
105 735 -2.098964 -7.671338 1.118 
115 735 0.786701 -3.347849 1.337 
125 735 -0.340771 -1.353320 1.111 
135 735 -3.050363 0.743355 1.143 
145 735 -5.539896 1.691140 3.154 
155 735 -6.305276 1.895777 2.548 
165 735 -5.942805 2.097673 2.301 
175 735 -5.785396 2.032865 2.613 
185 735 -5.442634 2.179320 1.191 
195 735 -5.389822 1.818133 2.952 
205 735 -5.453022 1.611214 2.544 
215 735 -5.714684 1.513492 1.760 
225 735 -5.696279 1.326376 1.075 
235 735 -5.885781 1.753649 1.291 
245 735 -5.617615 1.830880 1.887 
255 735 -5.641947 1.816901 1.288 
265 735 -5.350213 2.187493 1.133 
275 735 -5.437574 2.341267 1.164 
285 735 -5.269120 1.851056 1.028 
295 735 -5.190494 1.892284 1.608 
305 735 -5.100686 2.141722 2.041 
315 735 -5.556057 2.295078 3.738 
325 735 -5.578274 2.103913 3.174 
335 735 -6.136503 1.634018 1.857 
345 735 -6.244028 1.691274 1.070 
355 735 -6.431204 1.942119 1.639 
365 735 -6.256638 1.390472 2.881 
375 735 -6.741151 1.600054 1.537 
385 735 -6.815550 2.162935 1.550 
395 735 -6.982753 3.651598 1.447 
405 735 -6.706948 4.940608 1.487 
415 735 -6.388730 3.756078 1.616 
425 735 -6.164541 1.377220 1.807 
435 735 -6.381556 0.991234 1.821 
445 735 -6.532032 0.806860 2.038 
455 735 -6.659616 0.860680 2.765 
465 735 -7.062834 1.073291 2.252 
475 735 -6.780155 1.690995 3.393 
485 735 -5.877598 1.893202 1.754 
495 735 -5.894547 1.713580 1.473 
505 735 -6.303528 1.392707 1.294 
515 735 -5.741256 1.425514 1.830 
525 735 -5.572910 0.992829 3.143 
535 735 -5.358918 1.298733 1.665 
545 735 -4.479302 1.320206 3.102 
555 735 -4.343099 1.755444 2.702 
565 735 -4.164053 1.675037 1.311 
575 735 -4.565666 1.203571 1.475 
585 735 -4.755407 1.574859 2.183 
595 735 -4.531110 1.787795 2.300 
605 735 -4.424271 1.591651 1.151 
615 735 -4.746315 1.371685 4.216 
625 735 -5.314571 1.411356 1.738 
635 735 -5.099414 1.366089 1.184 
645 735 -4.725288 1.289622 1.042 
655 735 -4.735151 1.827169 6.891 
665 735 -4.510080 1.858337 1.652 
675 735 -4.419865 1.651918 6.928 
685 735 -4.659111 1.531189 3.567 
695 735 -5.024977 1.377054 1.635 
705 735 -4.997344 1.121870 4.337 
715 735 -4.913014 1.524970 3.494 
725 735 -5.084798 1.423188 2.800 
735 735 -4.969832 1.113977 2.786 
745 735 -4.912436 1.249080 1.386 
755 735 -4.867009 1.268406 2.281 
765 735 -4.857597 1.117303 2.437 
775 735 -5.008140 1.083366 3.215 
785 735 -5.439915 1.139684 4.198 
795 735 -6.139350 0.812995 2.174 
805 735 -6.653933 0.552027 3.203 
815 735 -6.601824 0.580601 4.412 
825 735 -6.571599 0.452035 24.627 
835 735 -6.645701 0.403523 20.000 
845 735 -6.704735 0.525245 20.000 
855 735 -6.858417 0.884614 2.223 
865 735 -6.822558 0.304607 3.023 
875 735 -6.547999 -0.228318 2.171 
885 735 -6.415886 -0.555296 2.461 
895 735 -6.792925 -0.597707 2.897 
905 735 -6.689520 -0.996125 1.495 
915 735 -6.409178 -1.392747 1.036 
925 735 -6.546341 -1.253645 2.157 
935 735 -7.323604 -1.076278 2.516 
945 735 -7.343493 -0.939905 4.397 
955 735 -7.286159 -0.878658 6.170 
965 735 -7.090480 -0.984233 1.186 
975 735 -6.847205 -1.397578 2.524 
985 735 -6.816023 -1.434279 1.890 
995 735 -6.242392 -1.191491 1.794 
1005 735 -5.988189 -1.353156 1.417 
1015 735 -6.406200 -1.478762 1.435 
1025 735 -6.779314 -1.371595 1.862 