TITLE = "B00462"
VARIABLES = "x", "y", "u", "v", "sn"
ZONE T="Frame 0", I=128, J=80
5 795 0.000000 -0.000000 1.111 
15 795 0.000000 -0.000000 1.111 
25 795 0.000000 -0.000000 1.236 
35 795 0.000000 -0.000000 1.457 
45 795 0.000000 -0.000000 1.339 
55 795 0.000000 -0.000000 1.152 
65 795 0.000000 -0.000000 1.099 
75 795 8.584587 -10.189945 1.014 
85 795 3.236195 -12.485226 1.740 
95 795 1.129501 -11.767204 1.316 
105 795 0.805608 -7.311740 1.018 
115 795 0.481714 -2.856276 1.640 
125 795 -1.605790 -1.292568 1.322 
135 795 -3.693294 0.271141 1.100 
145 795 -5.780798 1.834849 1.253 
155 795 -3.259683 1.716574 1.033 
165 795 -2.148171 1.091275 1.249 
175 795 -1.036659 0.465976 1.199 
185 795 -3.632065 -0.070030 1.240 
195 795 -5.404776 -0.423470 7.141 
205 795 -5.386331 -0.798034 6.484 
215 795 -4.669366 -1.550368 2.168 
225 795 -3.116030 -3.176956 1.104 
235 795 -2.608774 -3.463390 2.416 
245 795 -2.101518 -3.749823 1.830 
255 795 -1.594262 -4.036257 1.071 
265 795 -2.074861 -1.035014 1.546 
275 795 -1.865892 -0.001427 3.492 
285 795 -2.368841 1.074433 2.472 
295 795 -3.979033 3.264675 4.639 
305 795 -6.740995 3.237256 3.661 
315 795 -9.502957 3.209838 1.172 
325 795 -7.159318 3.321326 1.022 
335 795 -4.631654 3.466958 1.526 
345 795 -4.659669 3.280007 1.604 
355 795 -4.804387 2.604783 1.489 
365 795 -3.747087 1.303237 1.590 
375 795 -3.077391 1.125100 1.507 
385 795 -2.958460 1.162811 1.300 
395 795 -2.590500 0.598327 1.114 
405 795 -2.481707 0.630447 1.055 
415 795 -2.372913 0.662566 1.020 
425 795 -2.409185 0.971774 1.734 
435 795 -1.444324 0.188839 2.556 
445 795 -1.078433 0.480898 3.369 
455 795 -1.039654 1.145952 2.833 
465 795 -1.642682 1.113164 2.565 
475 795 -1.882450 1.195343 1.842 
485 795 -2.122218 1.277522 2.275 
495 795 -1.355709 1.535101 1.767 
505 795 -1.211496 1.606642 1.468 
515 795 -1.067283 1.678183 3.801 
525 795 -0.782773 2.506634 1.016 
535 795 -0.903325 2.459841 1.134 
545 795 -1.023878 2.413049 9.431 
555 795 -1.755856 2.185483 1.085 
565 795 -2.124441 2.455312 1.060 
575 795 -2.161417 2.801878 1.406 
585 795 -1.890603 2.866030 1.461 
595 795 -1.637138 2.590422 2.374 
605 795 -1.778774 1.760951 3.731 
615 795 -2.240147 1.512315 3.580 
625 795 -2.748606 1.642614 4.125 
635 795 -2.885397 2.371513 2.393 
645 795 -2.637364 2.675051 1.496 
655 795 -2.119663 2.913692 2.884 
665 795 -1.850794 2.915268 3.254 
675 795 -1.581925 2.916844 4.095 
685 795 -1.703182 2.679579 2.648 
695 795 -1.562211 3.092678 2.264 
705 795 -0.757526 3.094591 1.032 
715 795 -0.410953 3.169756 1.984 
725 795 -0.601250 3.234622 3.547 
735 795 -0.636669 3.353807 1.443 
745 795 -0.672088 3.472993 1.126 
755 795 -0.707506 3.592179 1.198 
765 795 -0.742925 3.711364 2.204 
775 795 -0.707656 3.351032 5.595 
785 795 -0.379140 2.841740 2.422 
795 795 -0.084450 2.119208 4.201 
805 795 0.031251 1.292518 5.328 
815 795 -0.659923 0.821549 1.896 
825 795 -0.525719 0.930084 3.891 
835 795 -0.195928 1.233075 4.561 
845 795 -0.109332 1.527594 29.142 
855 795 -0.746294 1.979918 10.778 
865 795 -1.904935 2.658992 2.761 
875 795 -2.338535 2.895138 3.313 
885 795 -2.287379 3.448914 1.386 
895 795 -2.390497 3.359418 1.438 
905 795 -2.342040 3.209797 2.119 
915 795 -2.173452 3.456895 7.769 
925 795 -1.026708 3.603031 3.987 
935 795 -0.657833 3.733894 3.250 
945 795 -0.288959 3.864756 3.667 
955 795 -1.230193 3.192239 1.743 
965 795 -1.883015 2.551804 1.338 
975 795 -2.349898 2.467644 2.849 
985 795 -2.416075 3.206808 1.196 
995 795 -2.373879 3.338874 2.077 
1005 795 -1.691643 2.198386 1.262 
1015 795 -0.926817 0.678506 1.768 
1025 795 -0.348203 -0.359592 1.334 
1035 795 -0.345267 0.103580 1.492 
1045 795 -0.267810 0.650287 1.469 
1055 795 -0.190354 1.196993 1.098 
1065 795 -0.337836 -0.743665 1.236 
1075 795 -0.485317 -2.684323 1.016 
1085 795 1.224299 -1.533940 1.008 
1095 795 2.933915 -0.383557 1.794 
1105 795 4.643531 0.766826 1.376 
1115 795 6.353147 1.917208 1.381 
1125 795 8.062763 3.067591 1.241 
1135 795 9.772380 4.217974 1.306 
1145 795 15.531480 7.058490 1.078 
1155 795 15.347255 5.830176 2.043 
1165 795 15.163030 4.601862 1.020 
1175 795 14.978805 3.373548 1.082 
1185 795 13.583988 1.326508 1.108 
1195 795 11.868080 1.290502 1.132 
1205 795 10.152171 1.254496 1.293 
1215 795 8.436263 1.218490 1.262 
1225 795 7.648245 3.559046 1.228 
1235 795 4.624992 2.651691 1.193 
1245 795 1.601739 1.744336 1.201 
1255 795 1.635150 0.698833 1.131 
1265 795 1.668561 -0.346671 1.719 
1275 795 0.000000 -0.000000 1.738 
5 785 -3.478378 -8.557909 1.111 
15 785 -1.021969 -8.595549 1.111 
25 785 0.657922 -8.612377 1.236 
35 785 0.594430 -9.971050 1.457 
45 785 2.773701 -10.038694 1.339 
55 785 4.060826 -11.093383 1.152 
65 785 5.347952 -12.148072 1.099 
75 785 5.652420 -13.410816 1.014 
85 785 2.643059 -16.834460 1.740 
95 785 0.635531 -14.597115 1.316 
105 785 0.725638 -9.127290 1.018 
115 785 0.815744 -3.657465 1.640 
125 785 0.896665 0.244851 1.322 
135 785 -2.981182 1.336448 1.100 
145 785 -8.038975 0.379743 1.253 
155 785 -5.413748 0.322902 1.033 
165 785 -1.008900 0.770112 1.249 
175 785 -1.269220 0.379699 1.199 
185 785 -3.067265 0.116458 1.240 
195 785 -4.913977 -0.019339 7.141 
205 785 -5.337967 -0.267773 6.484 
215 785 -4.844409 -0.874024 2.168 
225 785 -3.527361 -1.634455 1.104 
235 785 -2.254159 -2.366864 2.416 
245 785 -2.043754 -2.843375 1.830 
255 785 -2.297252 -2.654994 1.071 
265 785 -2.371658 -0.126209 1.546 
275 785 -2.151742 0.612302 3.492 
285 785 -2.811556 1.423888 2.472 
295 785 -4.327282 3.093829 4.639 
305 785 -7.045644 3.032952 3.661 
315 785 -9.764006 2.972076 1.172 
325 785 -7.341264 3.243698 1.022 
335 785 -4.737998 3.470084 1.526 
345 785 -4.746086 3.398834 1.604 
355 785 -4.738162 2.852758 1.489 
365 785 -3.805706 1.995572 1.590 
375 785 -2.996783 1.501329 1.507 
385 785 -2.868350 1.524329 1.300 
395 785 -2.519321 0.955152 1.114 
405 785 -2.154869 0.531832 1.055 
415 785 -2.242502 1.142180 1.020 
425 785 -2.296877 1.455769 1.734 
435 785 -1.413279 0.583360 2.556 
445 785 -1.068457 0.803469 3.369 
455 785 -0.950799 1.307790 2.833 
465 785 -1.419051 1.243566 2.565 
475 785 -1.732146 1.237343 1.842 
485 785 -1.754121 1.398668 2.275 
495 785 -1.090855 1.587364 1.767 
505 785 -0.934903 1.687659 1.468 
515 785 -0.778952 1.787953 3.801 
525 785 -0.510116 2.597188 1.016 
535 785 -0.551351 3.097467 1.134 
545 785 -0.975333 2.494399 9.431 
555 785 -1.595182 2.253821 1.085 
565 785 -1.869787 2.444639 1.060 
575 785 -2.043717 2.737826 1.406 
585 785 -1.815255 2.824608 1.461 
595 785 -1.579840 2.708234 2.374 
605 785 -1.686142 2.081763 3.731 
615 785 -2.107225 1.834945 3.580 
625 785 -2.436339 2.180338 4.125 
635 785 -2.656059 2.606197 2.393 
645 785 -2.394569 2.846346 1.496 
655 785 -1.953921 2.951232 2.884 
665 785 -1.606287 3.117951 3.254 
675 785 -1.520163 2.793224 4.095 
685 785 -1.646867 2.553504 2.648 
695 785 -1.518827 2.939477 2.264 
705 785 -0.753105 2.901961 1.032 
715 785 -0.450141 2.970314 1.984 
725 785 -0.692425 3.033932 3.547 
735 785 -0.984392 2.425785 1.443 
745 785 -1.013811 2.845571 1.126 
755 785 -1.043230 3.265357 1.198 
765 785 -1.072649 3.685143 2.204 
775 785 -1.026094 3.498572 5.595 
785 785 -0.658723 3.056557 2.422 
795 785 -0.367114 2.468902 4.201 
805 785 -0.142979 1.682252 5.328 
815 785 -0.639042 1.065192 1.896 
825 785 -0.410784 1.051416 3.891 
835 785 -0.194794 1.462271 4.561 
845 785 -0.225764 1.780304 29.142 
855 785 -0.816295 2.150521 10.778 
865 785 -1.892858 2.786185 2.761 
875 785 -2.309655 2.993412 3.313 
885 785 -2.385059 3.544570 1.386 
895 785 -2.534954 3.486437 1.438 
905 785 -2.546037 3.395316 2.119 
915 785 -2.432830 3.686690 7.769 
925 785 -1.734872 3.754302 3.987 
935 785 -0.675637 3.874233 3.250 
945 785 -1.167025 3.820278 3.667 
955 785 -1.928951 3.121095 1.743 
965 785 -2.393539 2.484501 1.338 
975 785 -2.557158 2.439458 2.849 
985 785 -2.516937 3.158484 1.196 
995 785 -2.624188 3.294421 2.077 
1005 785 -2.030669 2.238072 1.262 
1015 785 -1.278487 0.884494 1.768 
1025 785 -0.612170 -0.095432 1.334 
1035 785 -0.470063 0.258537 1.492 
1045 785 0.118848 0.840322 1.469 
1055 785 -0.226213 1.094263 1.098 
1065 785 -0.936876 1.286762 1.236 
1075 785 -0.418699 -0.732838 1.016 
1085 785 0.084209 -2.641607 1.008 
1095 785 0.502625 3.246937 1.794 
1105 785 0.911628 3.600043 1.376 
1115 785 1.383597 2.590092 1.381 
1125 785 2.048509 1.621785 1.241 
1135 785 3.183400 0.897463 1.306 
1145 785 9.076972 3.525504 1.078 
1155 785 15.909982 5.827511 2.043 
1165 785 14.216534 3.480610 1.020 
1175 785 12.523086 1.133708 1.082 
1185 785 11.387326 -0.414523 1.108 
1195 785 12.648898 1.121003 1.132 
1205 785 11.217399 1.552096 1.293 
1215 785 9.785900 1.983189 1.262 
1225 785 7.555466 2.563604 1.228 
1235 785 7.026340 1.040056 1.193 
1245 785 2.173468 -0.714947 1.201 
1255 785 1.136379 -2.092540 1.131 
1265 785 0.099291 -3.470134 1.719 
1275 785 2.320818 -2.567481 1.738 
5 775 5.869504 -10.998896 1.544 
15 775 4.026580 -11.805156 1.544 
25 775 4.036071 -12.337183 1.167 
35 775 3.566177 -13.366777 1.478 
45 775 3.661437 -13.380805 1.924 
55 775 3.297554 -13.530686 1.043 
65 775 3.398442 -15.160889 1.000 
75 775 2.720253 -16.631687 1.101 
85 775 -0.109564 -16.021650 1.662 
95 775 -1.434987 -17.099184 1.057 
105 775 -0.957488 -12.009001 1.063 
115 775 0.821180 -4.537350 1.858 
125 775 -0.125478 -0.699786 1.256 
135 775 -4.751659 -0.753091 1.284 
145 775 -7.462048 -1.588914 1.260 
155 775 -7.047925 -1.246284 1.067 
165 775 -4.361030 -0.623012 1.115 
175 775 -2.820336 0.957111 1.088 
185 775 -3.311443 0.521632 1.068 
195 775 -5.089954 0.568220 2.682 
205 775 -5.235166 0.410603 2.921 
215 775 -5.170643 0.362014 1.511 
225 775 -4.401833 0.159873 1.123 
235 775 -3.425574 -0.009084 1.480 
245 775 -3.234767 0.788935 1.069 
255 775 -3.379504 0.395107 1.344 
265 775 -2.960674 1.012307 1.353 
275 775 -2.653044 1.046201 1.089 
285 775 -3.447114 1.335590 1.166 
295 775 -4.798540 2.267187 2.593 
305 775 -6.890305 2.522243 1.367 
315 775 -7.745104 2.792685 1.028 
325 775 -6.178037 3.178254 1.437 
335 775 -4.663963 3.692974 2.012 
345 775 -4.779410 3.684815 2.074 
355 775 -4.771762 3.239119 1.417 
365 775 -3.903290 2.606095 1.067 
375 775 -2.980672 2.415464 1.692 
385 775 -2.874900 2.748905 1.591 
395 775 -2.658573 1.717508 1.213 
405 775 -2.408532 1.808360 1.005 
415 775 -2.298392 2.580476 1.119 
425 775 -2.229328 3.596280 1.252 
435 775 -1.611761 2.067861 3.070 
445 775 -0.994194 0.539442 1.779 
455 775 -0.996137 0.890290 2.620 
465 775 -1.163126 1.403205 1.921 
475 775 -1.480280 1.506599 2.559 
485 775 -1.075406 1.860926 2.087 
495 775 -0.806936 1.817543 1.916 
505 775 -0.434525 1.688842 4.550 
515 775 -0.342023 2.319544 2.436 
525 775 -0.403063 2.912982 1.013 
535 775 -0.732556 3.218077 1.165 
545 775 -0.970192 2.786622 1.054 
555 775 -1.586496 2.230291 1.948 
565 775 -1.687589 2.026346 1.396 
575 775 -1.733218 2.286978 1.801 
585 775 -1.584980 2.748448 2.777 
595 775 -1.349924 2.817064 1.861 
605 775 -1.750156 2.379491 1.374 
615 775 -1.963822 2.149532 3.161 
625 775 -1.980050 2.673356 5.723 
635 775 -2.045912 3.048978 8.089 
645 775 -2.000491 3.133489 1.544 
655 775 -1.679884 3.099010 3.440 
665 775 -1.552610 3.004282 3.204 
675 775 -1.447191 2.740488 9.967 
685 775 -1.744104 2.376043 3.406 
695 775 -1.565395 2.526315 3.060 
705 775 -0.961990 2.331493 2.102 
715 775 -0.563661 2.814458 1.872 
725 775 -0.670026 3.082691 12.169 
735 775 -0.859545 2.667724 2.548 
745 775 -1.435705 2.696165 2.005 
755 775 -1.740052 3.303042 2.887 
765 775 -1.471447 3.670019 2.779 
775 775 -1.384285 3.762182 4.706 
785 775 -1.903365 3.800630 2.346 
795 775 -1.498128 3.199102 1.411 
805 775 -1.034528 2.305942 1.728 
815 775 -0.446978 1.291549 2.300 
825 775 -0.267777 1.426476 4.714 
835 775 -0.628500 1.982494 6.838 
845 775 -0.887846 2.323247 6.420 
855 775 -1.282073 2.554472 1.075 
865 775 -2.131342 2.935718 1.094 
875 775 -2.172526 3.281506 1.273 
885 775 -2.840486 3.534051 1.396 
895 775 -2.977828 3.658203 2.029 
905 775 -3.188378 3.711327 5.861 
915 775 -3.564120 4.124263 5.361 
925 775 -3.270836 3.801710 8.718 
935 775 -2.765891 3.713167 1.076 
945 775 -4.007979 3.142267 1.789 
955 775 -3.811302 2.744664 1.759 
965 775 -3.273169 2.451596 2.119 
975 775 -2.990688 2.596042 6.200 
985 775 -2.687695 2.985205 2.363 
995 775 -3.050815 3.211395 2.674 
1005 775 -2.678065 2.455985 1.765 
1015 775 -1.916845 1.423628 1.933 
1025 775 -1.151436 0.618849 1.699 
1035 775 -0.729996 0.833074 1.636 
1045 775 -0.340323 0.879127 3.966 
1055 775 -0.516003 0.923720 2.305 
1065 775 -0.863623 1.324716 2.168 
1075 775 -0.352080 1.218647 2.371 
1085 775 -0.049205 1.474339 8.612 
1095 775 0.239503 2.583216 1.419 
1105 775 -0.578024 2.624558 1.532 
1115 775 -0.331287 1.948555 1.039 
1125 775 -0.152524 1.731279 1.316 
1135 775 1.320630 1.356352 1.125 
1145 775 3.017213 0.075572 1.046 
1155 775 13.882526 4.603709 1.912 
1165 775 15.083828 2.153238 1.460 
1175 775 11.554689 -0.932083 1.454 
1185 775 10.960156 -1.972483 1.001 
1195 775 11.498770 -0.240076 2.147 
1205 775 11.713808 0.915498 1.391 
1215 775 9.858070 1.314724 1.298 
1225 775 8.875324 0.392351 1.738 
1235 775 4.688273 -3.131053 1.958 
1245 775 2.381899 -6.895313 1.179 
1255 775 -0.330515 -10.870868 1.328 
1265 775 -4.367880 -5.426419 1.118 
1275 775 -3.473463 -4.197649 1.191 
5 765 15.490562 -9.880595 1.041 
15 765 12.512772 -10.592081 1.041 
25 765 8.944881 -11.842966 1.674 
35 765 6.067640 -13.286134 1.365 
45 765 5.293919 -14.295606 1.089 
55 765 3.810584 -15.700563 1.200 
65 765 2.288411 -15.944414 1.010 
75 765 0.252151 -16.044504 1.210 
85 765 -1.631271 -16.681319 1.079 
95 765 -2.001564 -18.275151 1.079 
105 765 -2.002253 -11.658163 1.135 
115 765 -0.009261 -4.331656 1.085 
125 765 1.153780 -2.763451 1.119 
135 765 -5.954377 -2.825084 1.047 
145 765 -5.817778 -3.371395 1.130 
155 765 -6.331196 -0.939796 1.034 
165 765 -4.857963 1.325605 20.000 
175 765 -4.371452 1.534522 20.000 
185 765 -4.639222 1.349458 9.599 
195 765 -5.035088 0.973058 3.308 
205 765 -5.132365 1.088978 1.948 
215 765 -5.178544 1.305470 2.912 
225 765 -4.876970 1.419507 2.587 
235 765 -4.704495 2.065291 1.656 
245 765 -4.376254 2.067412 1.964 
255 765 -4.175542 1.725862 1.945 
265 765 -3.875823 1.705456 1.031 
275 765 -3.573650 1.254320 1.635 
285 765 -4.609545 1.255963 1.580 
295 765 -5.672573 1.857919 1.412 
305 765 -6.108370 2.327465 2.034 
315 765 -5.726202 2.613294 1.132 
325 765 -5.014809 3.112811 1.155 
335 765 -4.310013 3.541093 2.787 
345 765 -4.417950 3.738644 2.559 
355 765 -4.574671 3.338410 1.511 
365 765 -3.801760 2.655508 1.382 
375 765 -3.001026 1.992146 1.466 
385 765 -2.944360 2.003881 1.076 
395 765 -2.797825 2.479864 1.310 
405 765 -2.662196 3.084888 1.484 
415 765 -2.354283 4.018772 1.376 
425 765 -2.265489 3.907590 1.358 
435 765 -2.222010 2.740351 1.692 
445 765 -2.178531 1.573113 3.891 
455 765 -1.367037 1.504660 4.083 
465 765 -0.842265 1.922835 1.382 
475 765 -0.609655 2.151456 1.538 
485 765 -1.150173 1.825609 3.063 
495 765 -0.795920 2.000461 1.909 
505 765 -0.663850 1.946326 3.383 
515 765 -0.606296 2.192682 2.580 
525 765 -0.787558 2.980667 1.288 
535 765 -1.270696 3.135938 1.157 
545 765 -1.734708 2.840939 1.900 
555 765 -1.057795 2.190557 5.486 
565 765 -1.021827 1.872703 2.655 
575 765 -1.397808 1.571374 2.978 
585 765 -1.555052 1.599279 2.746 
595 765 -1.328642 2.309649 2.282 
605 765 -1.415026 2.254763 1.365 
615 765 -1.491200 2.250591 3.269 
625 765 -1.458205 2.856719 8.861 
635 765 -1.512966 3.085212 7.830 
645 765 -1.477992 2.937051 1.430 
655 765 -1.261444 2.816501 1.738 
665 765 -1.343620 2.551313 2.417 
675 765 -1.319678 2.308014 5.610 
685 765 -1.611224 2.403003 2.273 
695 765 -1.416369 2.442133 1.834 
705 765 -0.961546 2.157662 2.307 
715 765 -0.855145 2.315391 3.227 
725 765 -0.851985 2.737040 2.614 
735 765 -1.164456 2.547610 2.068 
745 765 -1.674331 2.723419 2.438 
755 765 -2.109337 3.166839 2.847 
765 765 -1.970631 3.398303 3.328 
775 765 -1.949196 3.651087 15.577 
785 765 -2.702987 3.855808 2.075 
795 765 -2.894520 4.035892 3.340 
805 765 -2.524419 2.845760 3.079 
815 765 -1.807586 1.703406 2.704 
825 765 -1.216312 1.650114 4.767 
835 765 -1.452045 2.245532 9.090 
845 765 -1.713891 2.649172 5.409 
855 765 -2.044882 2.906942 1.389 
865 765 -2.608842 3.056837 1.549 
875 765 -2.989889 3.333110 1.655 
885 765 -3.447695 3.493465 3.898 
895 765 -3.443021 3.754162 2.084 
905 765 -3.270668 4.062163 3.383 
915 765 -3.150827 4.678305 1.961 
925 765 -4.641181 4.069976 3.753 
935 765 -4.665783 3.749059 1.975 
945 765 -5.098765 3.446301 1.846 
955 765 -5.101177 2.828080 1.729 
965 765 -4.262043 2.686565 2.938 
975 765 -3.320309 2.864495 2.957 
985 765 -3.310324 3.260468 3.571 
995 765 -3.497276 3.472447 20.000 
1005 765 -3.305724 2.953328 20.000 
1015 765 -2.413015 2.272605 2.661 
1025 765 -1.649301 1.834051 2.095 
1035 765 -1.038372 1.487163 2.673 
1045 765 -0.672778 1.323359 5.609 
1055 765 -0.998852 1.244585 1.700 
1065 765 -1.120088 1.376677 1.343 
1075 765 -0.447443 1.032970 1.616 
1085 765 0.017943 1.153939 6.887 
1095 765 -0.023619 1.919496 1.025 
1105 765 -0.309442 2.457011 1.109 
1115 765 -0.023749 2.518289 3.838 
1125 765 -0.282944 2.166764 1.719 
1135 765 -0.542139 1.815240 1.116 
1145 765 1.760239 1.145328 1.256 
1155 765 9.679377 2.887832 1.072 
1165 765 10.815713 0.142485 1.219 
1175 765 10.102742 -1.085577 1.170 
1185 765 7.361395 -2.027064 1.118 
1195 765 9.411314 -0.771997 1.874 
1205 765 9.320513 -0.074367 1.337 
1215 765 6.274081 -2.030727 1.090 
1225 765 3.857171 -4.126208 1.050 
1235 765 2.350206 -7.302163 1.191 
1245 765 2.174491 -11.436113 1.622 
1255 765 0.179514 -10.667501 1.371 
1265 765 -7.495332 -6.700439 2.268 
1275 765 -7.757269 -5.032025 1.848 
5 755 23.376119 -7.028032 1.520 
15 755 19.257774 -8.107811 1.520 
25 755 13.644240 -9.881553 1.688 
35 755 9.406677 -12.412845 1.547 
45 755 7.935279 -14.228622 2.084 
55 755 5.833810 -16.382171 1.342 
65 755 4.663891 -17.644948 1.460 
75 755 0.056866 -17.154116 1.059 
85 755 -0.483009 -16.701191 1.363 
95 755 -2.568142 -19.451118 1.462 
105 755 -2.650867 -7.817389 1.340 
115 755 0.279078 -1.555010 1.303 
125 755 3.057824 -2.374643 1.093 
135 755 -1.918742 -2.064379 1.090 
145 755 -2.580345 -3.961170 1.233 
155 755 -3.932559 -2.938587 1.278 
165 755 -4.802186 1.179273 20.000 
175 755 -4.851556 1.621562 1.714 
185 755 -5.077839 1.509597 2.850 
195 755 -5.165682 1.177410 5.057 
205 755 -4.953708 1.316704 14.275 
215 755 -4.911184 1.373461 20.000 
225 755 -4.810880 1.515490 20.000 
235 755 -4.803880 1.798227 1.626 
245 755 -4.939229 1.905447 2.122 
255 755 -5.012352 1.520716 2.108 
265 755 -4.592835 1.368715 2.651 
275 755 -4.310548 1.204373 1.076 
285 755 -5.250906 1.527955 1.992 
295 755 -5.549129 2.039854 1.344 
305 755 -5.928829 1.965399 2.017 
315 755 -5.067957 1.852328 1.055 
325 755 -4.449178 2.463485 1.265 
335 755 -3.876858 3.167700 7.780 
345 755 -3.646489 3.445547 161.803 
355 755 -3.679725 3.175445 99.679 
365 755 -3.522305 2.502583 3.836 
375 755 -3.021379 1.568827 1.658 
385 755 -2.677507 1.960315 1.168 
395 755 -2.713815 2.052118 1.035 
405 755 -2.449431 3.189771 1.553 
415 755 -2.411386 3.725014 2.809 
425 755 -2.248881 3.782159 1.542 
435 755 -2.390522 3.105411 2.413 
445 755 -2.532162 2.428664 2.559 
455 755 -1.785955 2.185460 2.808 
465 755 -1.399820 2.206957 1.767 
475 755 -1.012607 2.131819 1.933 
485 755 -1.224939 1.790293 2.135 
495 755 -1.358377 1.689729 2.056 
505 755 -1.356747 1.709945 2.397 
515 755 -0.925785 2.025586 1.742 
525 755 -1.242506 2.727856 2.432 
535 755 -1.808836 3.053799 21.085 
545 755 -2.001400 2.897370 9.370 
555 755 -1.263039 2.402413 2.594 
565 755 -0.882533 2.006506 2.121 
575 755 -1.074071 1.700372 2.395 
585 755 -1.382770 1.686828 3.896 
595 755 -1.286663 2.098860 9.179 
605 755 -1.130875 2.133046 1.004 
615 755 -0.904118 2.216829 1.851 
625 755 -0.972255 2.681216 7.667 
635 755 -1.133593 2.748492 7.675 
645 755 -1.311976 2.507555 2.342 
655 755 -1.167249 2.266963 2.307 
665 755 -1.293907 1.973614 2.268 
675 755 -1.552263 1.807027 2.044 
685 755 -1.118424 2.167757 3.535 
695 755 -0.993720 2.617091 2.159 
705 755 -1.147437 2.434906 2.682 
715 755 -1.412195 1.893577 3.351 
725 755 -1.300608 1.918463 1.730 
735 755 -1.588131 2.583557 1.753 
745 755 -2.398781 2.922249 1.741 
755 755 -2.674741 3.084234 3.625 
765 755 -2.522475 3.197980 3.739 
775 755 -2.585772 3.263871 20.000 
785 755 -3.502609 3.910987 2.066 
795 755 -4.322915 3.713057 2.488 
805 755 -4.389065 2.793966 2.789 
815 755 -3.768147 1.604420 3.324 
825 755 -2.832934 1.637260 4.060 
835 755 -2.566616 2.203100 3.648 
845 755 -2.809064 2.700783 2.537 
855 755 -2.946993 3.104911 2.288 
865 755 -3.113647 3.080274 1.541 
875 755 -3.629968 3.143138 2.857 
885 755 -3.638670 3.604221 4.501 
895 755 -3.716631 3.986278 2.206 
905 755 -3.275121 4.850471 1.689 
915 755 -2.737533 5.232347 1.367 
925 755 -4.718778 4.666197 1.036 
935 755 -4.772674 4.512766 3.280 
945 755 -5.126908 4.225868 2.693 
955 755 -4.928575 3.609551 2.176 
965 755 -4.244781 3.021794 1.790 
975 755 -3.701913 2.962775 2.443 
985 755 -3.642325 3.324181 2.209 
995 755 -3.794173 3.580475 4.656 
1005 755 -3.484201 3.311515 20.000 
1015 755 -2.888961 3.074838 2.430 
1025 755 -2.149111 2.746725 3.445 
1035 755 -1.471445 2.049346 3.052 
1045 755 -1.092136 1.542302 2.137 
1055 755 -1.344522 1.786363 1.326 
1065 755 -1.496941 1.913609 1.518 
1075 755 -0.828474 1.533147 1.466 
1085 755 -0.094253 1.478249 20.000 
1095 755 0.032603 1.751237 1.054 
1105 755 -0.106247 2.037522 2.013 
1115 755 -0.053600 2.167899 7.561 
1125 755 -0.420311 2.346094 1.514 
1135 755 -0.787021 2.524288 1.044 
1145 755 0.818464 1.976813 1.089 
1155 755 4.347182 0.260999 1.686 
1165 755 7.873901 3.569627 1.281 
1175 755 4.154239 3.950756 1.194 
1185 755 3.762633 -2.081645 1.160 
1195 755 4.822613 -0.832041 1.852 
1205 755 5.615828 -0.206507 1.074 
1215 755 4.122868 -1.363760 1.520 
1225 755 2.397653 -2.908740 1.321 
1235 755 0.242018 -6.423265 1.040 
1245 755 1.916043 -8.730526 1.056 
1255 755 0.689543 -10.464135 1.071 
1265 755 -7.576868 -5.897961 1.324 
1275 755 -5.347492 -6.281667 1.210 
5 745 24.874461 -7.622426 1.018 
15 745 19.431596 -8.275482 1.018 
25 745 15.115960 -8.609521 1.719 
35 745 10.450843 -11.442210 1.322 
45 745 7.459700 -13.341019 1.806 
55 745 5.860808 -16.921585 1.553 
65 745 3.541311 -18.084442 1.233 
75 745 -0.231703 -17.449410 1.065 
85 745 0.665253 -16.721063 1.044 
95 745 -0.345614 -16.101416 1.253 
105 745 -0.699842 -6.286241 1.254 
115 745 -0.765058 2.295399 1.121 
125 745 0.675918 0.495862 1.240 
135 745 2.116893 -1.303675 1.297 
145 745 -1.294576 -2.585542 1.052 
155 745 -3.700754 -0.973005 1.307 
165 745 -4.700666 1.105377 1.800 
175 745 -5.277336 1.444859 1.999 
185 745 -5.225566 1.449778 2.197 
195 745 -5.187379 1.393923 1.674 
205 745 -5.058355 1.391242 11.049 
215 745 -4.981595 1.441964 20.000 
225 745 -4.896728 1.546326 20.000 
235 745 -4.903265 1.531163 1.979 
245 745 -5.137195 1.537527 2.014 
255 745 -5.235720 1.335425 1.501 
265 745 -5.011000 1.310383 1.090 
275 745 -4.793696 1.551507 1.144 
285 745 -5.219513 2.346544 2.119 
295 745 -5.425684 2.221789 1.120 
305 745 -5.161045 1.785118 1.569 
315 745 -4.305043 1.443015 1.187 
325 745 -3.757577 2.422579 1.682 
335 745 -3.341291 3.483424 27.939 
345 745 -3.217605 3.519047 20.000 
355 745 -3.102220 3.392814 18.507 
365 745 -2.840270 3.013698 4.326 
375 745 -2.536671 2.320354 1.616 
385 745 -2.410653 1.916748 1.174 
395 745 -2.369727 2.297923 1.461 
405 745 -2.299015 2.921006 2.201 
415 745 -2.116243 3.329549 2.685 
425 745 -2.346826 3.213866 3.239 
435 745 -2.504516 2.996689 1.804 
445 745 -2.433170 2.705368 5.314 
455 745 -2.084904 2.332824 4.131 
465 745 -1.856380 2.060358 2.706 
475 745 -1.583007 1.824248 1.402 
485 745 -1.582296 1.676352 2.752 
495 745 -1.629814 1.645485 2.575 
505 745 -1.642745 1.759002 2.466 
515 745 -1.189223 1.977112 1.579 
525 745 -1.431500 2.797528 2.261 
535 745 -1.976526 3.469807 9.934 
545 745 -2.240025 3.266630 10.302 
555 745 -1.757981 2.689577 3.783 
565 745 -1.245327 2.414867 2.307 
575 745 -1.466698 2.270212 3.148 
585 745 -1.456198 2.105832 5.602 
595 745 -1.375836 2.160195 22.803 
605 745 -1.156410 2.401761 1.421 
615 745 -0.786542 2.782992 1.143 
625 745 -0.807012 2.623336 4.657 
635 745 -1.046230 2.573907 20.000 
645 745 -1.262269 2.226845 2.510 
655 745 -1.171389 1.982711 2.406 
665 745 -1.321674 1.659070 2.423 
675 745 -1.436695 1.550757 1.927 
685 745 -1.363380 1.593541 2.528 
695 745 -1.384539 2.194238 1.954 
705 745 -1.776512 1.893955 3.170 
715 745 -1.960305 1.759455 2.484 
725 745 -2.032319 1.997971 2.558 
735 745 -2.159542 3.093052 5.766 
745 745 -2.590024 3.600980 7.292 
755 745 -3.021229 3.608516 3.208 
765 745 -3.243654 3.213077 1.461 
775 745 -3.241417 3.233473 2.709 
785 745 -3.885590 3.042330 1.803 
795 745 -5.236262 3.175868 4.105 
805 745 -5.567439 2.598473 3.834 
815 745 -5.183067 1.414902 5.966 
825 745 -4.262206 1.249809 2.961 
835 745 -3.412921 2.117270 6.726 
845 745 -3.551629 2.602728 2.575 
855 745 -3.392745 3.151308 1.430 
865 745 -3.302335 3.336248 1.234 
875 745 -3.504310 3.663515 1.591 
885 745 -3.350756 4.018061 2.453 
895 745 -3.648903 4.206417 1.744 
905 745 -3.278440 5.501794 2.011 
915 745 -3.906270 5.208115 2.671 
925 745 -4.643433 5.051098 1.108 
935 745 -4.376395 4.952872 3.827 
945 745 -4.417821 4.627317 3.384 
955 745 -4.425628 4.052246 2.123 
965 745 -3.658271 3.126811 2.642 
975 745 -3.575934 2.865473 3.186 
985 745 -3.961258 3.083822 4.115 
995 745 -4.081365 3.432437 2.578 
1005 745 -3.565198 3.371012 3.866 
1015 745 -2.974537 3.205621 49.014 
1025 745 -2.414976 2.885957 61.184 
1035 745 -2.114082 2.563163 2.241 
1045 745 -1.649040 2.335306 1.054 
1055 745 -1.521656 2.405458 1.794 
1065 745 -1.669345 2.530726 2.479 
1075 745 -1.467886 2.392242 4.504 
1085 745 -0.454212 2.053032 1.978 
1095 745 -0.189219 1.909594 1.455 
1105 745 -0.246530 1.920731 2.236 
1115 745 -0.308444 1.700948 1.363 
1125 745 -0.552111 2.580413 1.409 
1135 745 -1.128226 2.589415 1.569 
1145 745 -0.069228 1.795680 1.807 
1155 745 1.923614 0.457627 20.000 
1165 745 3.342159 2.196895 1.007 
1175 745 1.976823 2.463500 1.018 
1185 745 1.524917 -1.914610 1.121 
1195 745 4.440320 -0.833302 1.041 
1205 745 5.649212 3.413503 1.323 
1215 745 1.971655 -0.696793 1.548 
1225 745 0.938134 -1.691272 1.018 
1235 745 0.669022 -0.614425 1.451 
1245 745 1.180906 -6.284365 1.943 
1255 745 1.727880 -8.041383 1.639 
1265 745 -0.604917 -7.786347 1.012 
1275 745 -2.937714 -7.531310 1.069 
5 735 26.372802 -8.216819 1.037 
15 735 19.605418 -8.443153 1.037 
25 735 12.957256 -7.866254 1.219 
35 735 6.355031 -11.122118 1.013 
45 735 1.287979 -13.756556 1.070 
55 735 1.613690 -13.639891 1.234 
65 735 2.418732 -18.523936 1.266 
75 735 -0.394603 -17.633888 1.024 
85 735 1.343866 -17.776519 1.433 
95 735 0.923925 -13.531060 1.038 
105 735 0.727534 -4.800923 1.416 
115 735 -0.499236 0.675459 1.358 
125 735 0.055713 1.373397 1.459 
135 735 0.429606 -0.442451 1.100 
145 735 -1.398126 0.610581 1.245 
155 735 -3.468948 0.992578 1.160 
165 735 -5.100657 1.079445 1.968 
175 735 -5.792301 0.792678 2.786 
185 735 -5.622562 0.900345 2.355 
195 735 -5.535727 0.958303 1.111 
205 735 -5.340402 1.153089 3.082 
215 735 -5.105364 1.368550 7.582 
225 735 -4.967462 1.430340 7.348 
235 735 -5.156036 1.178173 1.919 
245 735 -5.158615 1.323540 2.253 
255 735 -4.815239 1.269924 1.730 
265 735 -4.539207 0.857092 1.449 
275 735 -3.945744 0.595254 1.229 
285 735 -4.709170 2.394105 1.365 
295 735 -4.542806 2.656818 1.345 
305 735 -4.344207 2.217937 1.259 
315 735 -3.708054 1.902082 1.451 
325 735 -3.263321 2.922949 1.197 
335 735 -2.946182 4.015417 1.651 
345 735 -2.808153 3.801727 24.739 
355 735 -2.624160 3.667307 6.689 
365 735 -2.372261 3.423254 4.632 
375 735 -2.190500 3.143511 3.626 
385 735 -1.928398 2.828232 2.977 
395 735 -1.861292 2.660749 1.040 
405 735 -1.869835 2.644135 2.323 
415 735 -1.709005 3.076705 2.137 
425 735 -2.386632 3.284586 1.442 
435 735 -2.454970 3.191594 2.400 
445 735 -2.340437 2.942667 2.732 
455 735 -2.157227 2.528400 7.888 
465 735 -2.185469 2.027786 2.849 
475 735 -2.092381 1.926322 2.202 
485 735 -1.489357 2.134483 3.879 
495 735 -1.268951 2.045125 2.197 
505 735 -1.415104 1.927078 4.121 
515 735 -1.299498 2.166644 2.233 
525 735 -1.530225 3.027833 1.709 
535 735 -1.988324 3.757481 2.166 
545 735 -2.189151 3.498471 1.809 
555 735 -1.968925 2.832081 2.174 
565 735 -1.696936 2.787642 1.758 
575 735 -1.941518 2.476360 3.613 
585 735 -1.670280 2.042988 1.552 
595 735 -1.733505 2.051820 1.261 
605 735 -1.565313 2.431293 1.727 
615 735 -1.253054 2.558269 1.491 
625 735 -0.928415 2.677466 12.132 
635 735 -1.105836 2.553166 20.000 
645 735 -1.331729 2.138944 5.202 
655 735 -1.303012 1.781855 2.363 
665 735 -1.348839 1.486848 3.669 
675 735 -1.321127 1.294488 2.935 
685 735 -1.663622 1.497600 2.672 
695 735 -2.014868 1.806031 20.000 
705 735 -2.134263 1.787618 3.654 
715 735 -2.214768 1.712197 2.071 
725 735 -2.419644 2.155485 2.394 
735 735 -2.404947 3.157803 3.034 
745 735 -2.844679 3.710767 4.419 
755 735 -3.268776 3.644580 1.608 
765 735 -3.729537 3.248753 1.288 
775 735 -3.891766 2.999286 1.120 
785 735 -4.626819 2.772689 1.396 
795 735 -5.696366 2.910474 2.672 
805 735 -5.538327 2.421459 3.150 
815 735 -5.444059 1.361226 2.065 
825 735 -4.332118 1.333234 3.841 
835 735 -4.121420 1.745473 2.589 
845 735 -4.166795 2.253358 2.847 
855 735 -3.733570 2.646022 2.191 
865 735 -3.462917 3.239810 1.626 
875 735 -3.214032 3.795857 20.000 
885 735 -2.974915 4.241130 30.105 
895 735 -4.145380 4.057158 3.500 
905 735 -5.103874 4.477590 1.473 
915 735 -5.075007 5.183883 1.429 
925 735 -4.301229 5.009562 1.002 
935 735 -3.760928 4.645630 2.358 
945 735 -3.559480 4.372870 12.853 
955 735 -3.972663 4.000856 1.759 
965 735 -3.496176 3.267577 3.094 
975 735 -3.824248 2.844684 2.821 
985 735 -4.384895 2.997370 2.578 
995 735 -4.311468 3.015779 2.484 
1005 735 -3.714542 3.180619 1.068 
1015 735 -3.122702 3.152846 3.306 
1025 735 -2.658355 2.869692 2.099 
1035 735 -2.157542 2.465655 5.096 
1045 735 -1.846607 2.309376 1.008 