TITLE = "B01007"
VARIABLES = "x", "y", "u", "v", "sn"
ZONE T="Frame 0", I=80, J=50
8 792 0.000000 -0.000000 1.856 
24 792 0.912245 1.785724 1.796 
40 792 10.082416 4.791559 1.045 
56 792 17.294806 8.261744 1.794 
72 792 17.904894 9.555424 1.382 
88 792 9.974697 5.109181 1.248 
104 792 2.044500 0.662938 1.088 
120 792 1.693195 1.005143 1.362 
136 792 1.341891 1.347347 1.893 
152 792 0.990586 1.689552 1.039 
168 792 -8.055067 -3.253210 1.683 
184 792 -9.500477 -3.438020 1.860 
200 792 -8.396266 -1.413553 2.444 
216 792 -8.204008 -0.630429 2.459 
232 792 -8.243064 -0.514382 1.256 
248 792 -8.282121 -0.398335 1.971 
264 792 -8.321177 -0.282288 1.353 
280 792 -8.040675 -1.115979 1.904 
296 792 -7.751974 -1.911240 2.977 
312 792 -7.961316 -2.404446 2.797 
328 792 -8.095029 -2.686491 2.707 
344 792 -7.457115 -2.854849 3.121 
360 792 -7.186941 -2.764947 1.907 
376 792 -7.122818 -2.760759 3.022 
392 792 -7.137422 -3.078508 2.241 
408 792 -7.219047 -3.006816 2.624 
424 792 -7.603593 -2.666624 3.216 
440 792 -8.091838 -2.383879 2.034 
456 792 -8.472830 -2.043577 2.692 
472 792 -8.481322 -1.737786 1.919 
488 792 -8.401524 -1.774473 1.763 
504 792 -8.794522 -2.055315 2.200 
520 792 -9.382130 -2.295429 1.899 
536 792 -9.834230 -2.471416 3.969 
552 792 -9.658250 -2.718770 3.868 
568 792 -9.228801 -3.285420 2.096 
584 792 -9.431304 -3.910678 2.474 
600 792 -9.040201 -3.820848 2.264 
616 792 -8.787220 -3.510333 2.572 
632 792 -9.356262 -2.956045 2.728 
648 792 -9.348595 -2.631306 2.299 
664 792 -9.340928 -2.306568 2.411 
680 792 -9.333261 -1.981829 1.961 
696 792 -9.117525 -2.517714 1.419 
712 792 -8.780488 -2.459244 2.985 
728 792 -8.443450 -2.400774 2.821 
744 792 -8.576771 -1.354541 1.500 
760 792 -8.632512 -0.554204 2.868 
776 792 -8.755300 -0.658586 5.119 
792 792 -8.762397 -1.216898 1.388 
808 792 -8.680802 -1.681857 1.682 
824 792 -8.518463 -1.739747 1.101 
840 792 -8.186343 -1.824281 1.056 
856 792 -8.236513 -1.180544 2.314 
872 792 -8.286684 -0.536806 2.256 
888 792 -8.104554 0.054989 1.812 
904 792 -8.690457 -0.057159 2.845 
920 792 -9.054629 0.155623 2.826 
936 792 -8.800968 0.929275 1.629 
952 792 -8.367093 1.249026 1.651 
968 792 -7.987702 0.776811 4.322 
984 792 -7.596147 0.083122 1.079 
1000 792 -7.160029 -1.970837 1.940 
1016 792 -7.158265 -3.138250 3.858 
1032 792 -6.799702 -3.017764 1.797 
1048 792 -6.581700 -2.325859 1.376 
1064 792 -6.979491 -1.775043 1.642 
1080 792 -7.142261 -1.632386 1.360 
1096 792 -7.305032 -1.489728 1.249 
1112 792 -6.071540 -1.425123 2.825 
1128 792 -4.838048 -1.360518 1.741 
1144 792 -3.604555 -1.295912 1.083 
1160 792 3.969316 11.416674 1.463 
1176 792 19.017108 11.784040 1.312 
1192 792 -11.136721 11.948552 1.216 
1208 792 3.982525 -24.593612 1.224 
1224 792 3.820237 -20.309447 1.046 
1240 792 3.657948 -16.025283 1.053 
1256 792 3.495660 -11.741118 1.331 
1272 792 0.000000 -0.000000 1.500 
8 776 1.661937 1.143724 1.863 
24 776 0.459908 1.080118 1.786 
40 776 7.129531 3.394923 1.057 
56 776 13.400576 6.278235 1.685 
72 776 13.314648 6.497607 1.439 
88 776 1.669388 0.943665 1.284 
104 776 -0.106496 0.408494 1.127 
120 776 -0.113286 2.441088 1.370 
136 776 -0.120076 4.473683 2.018 
152 776 -3.120177 -0.237249 1.001 
168 776 -9.138807 -3.308744 1.727 
184 776 -8.841450 -2.352756 1.911 
200 776 -8.544092 -1.396767 2.639 
216 776 -8.483836 -1.214135 2.684 
232 776 -8.516078 -0.832346 1.209 
248 776 -8.436868 -0.602870 1.941 
264 776 -8.357658 -0.373394 1.374 
280 776 -7.987367 -0.979944 1.801 
296 776 -7.624822 -1.665893 2.886 
312 776 -7.804070 -2.182573 2.931 
328 776 -7.897016 -2.467547 2.761 
344 776 -7.381931 -2.672067 3.032 
360 776 -7.135907 -2.654214 1.991 
376 776 -7.013989 -2.646578 2.709 
392 776 -7.035071 -3.010535 2.585 
408 776 -7.086609 -2.965446 2.966 
424 776 -7.424759 -2.677235 3.251 
440 776 -7.860000 -2.406030 2.080 
456 776 -8.292701 -2.117545 2.561 
472 776 -8.422138 -1.855368 1.997 
488 776 -8.538499 -1.876697 1.830 
504 776 -8.894994 -2.186805 2.306 
520 776 -9.392068 -2.360915 1.887 
536 776 -9.835449 -2.455472 4.184 
552 776 -9.768389 -2.634015 3.181 
568 776 -9.321439 -3.171478 2.198 
584 776 -9.436083 -3.742034 2.461 
600 776 -9.045952 -3.611250 2.376 
616 776 -8.707908 -3.378853 2.643 
632 776 -9.132443 -2.856430 2.613 
648 776 -9.278761 -2.193837 2.309 
664 776 -9.303027 -1.637907 2.140 
680 776 -8.982018 -1.880150 1.937 
696 776 -8.774242 -2.451603 1.405 
712 776 -8.747316 -2.943415 3.232 
728 776 -8.278222 -2.509297 2.817 
744 776 -8.471413 -1.543402 1.481 
760 776 -8.515488 -0.765027 2.937 
776 776 -8.710708 -0.821082 5.219 
792 776 -8.928067 -1.208298 1.668 
808 776 -8.647155 -1.615302 1.545 
824 776 -8.612637 -1.501671 1.132 
840 776 -8.319384 -1.366139 1.034 
856 776 -8.325722 -1.095636 2.318 
872 776 -8.397302 -0.315069 2.377 
888 776 -8.388989 0.215392 1.871 
904 776 -8.822314 0.203740 2.675 
920 776 -9.199527 0.408430 3.051 
936 776 -9.038593 1.119744 1.639 
952 776 -8.651644 1.368258 1.648 
968 776 -8.249596 0.745717 4.544 
984 776 -7.785704 -0.044356 1.165 
1000 776 -7.430062 -2.112363 1.875 
1016 776 -7.345404 -3.154235 3.996 
1032 776 -6.972962 -2.963677 1.773 
1048 776 -6.813653 -2.253847 1.346 
1064 776 -7.217210 -1.690363 1.626 
1080 776 -7.272552 -1.421081 1.420 
1096 776 -7.327894 -1.151800 1.259 
1112 776 -6.489837 -1.181042 2.975 
1128 776 -5.851429 -1.258364 1.820 
1144 776 -3.975641 -0.036086 1.086 
1160 776 4.221989 12.061923 1.625 
1176 776 19.598015 12.257924 1.284 
1192 776 11.324403 -4.518935 1.099 
1208 776 3.050790 -21.295795 1.222 
1224 776 7.072674 -14.552645 1.259 
1240 776 5.421234 -12.731082 1.037 
1256 776 3.958135 -11.985928 1.274 
1272 776 2.275529 -10.376493 1.506 
8 760 1.097623 -2.178955 1.216 
24 760 -1.015458 -0.639273 1.245 
40 760 0.411039 0.545232 1.121 
56 760 12.107736 2.569698 1.080 
72 760 8.724402 3.439790 1.064 
88 760 2.355883 0.574237 1.216 
104 760 -2.550780 0.302596 1.315 
120 760 -4.393550 0.009797 1.177 
136 760 -4.532181 1.291093 1.008 
152 760 -6.140710 -1.442914 1.457 
168 760 -9.645659 -3.492351 2.227 
184 760 -9.284245 -2.607375 2.451 
200 760 -8.922832 -1.722398 2.974 
216 760 -8.813119 -1.668804 3.099 
232 760 -8.703407 -1.615210 1.918 
248 760 -8.828148 -1.034264 1.253 
264 760 -8.373623 -0.528382 2.213 
280 760 -7.917394 -0.682147 1.626 
296 760 -7.666085 -1.127694 2.561 
312 760 -7.590121 -1.724425 4.219 
328 760 -7.490541 -2.268322 2.513 
344 760 -7.556888 -2.471234 1.942 
360 760 -7.135621 -2.543849 2.271 
376 760 -6.976900 -2.726422 2.540 
392 760 -6.900219 -2.947776 2.497 
408 760 -6.889097 -2.970226 1.973 
424 760 -7.022704 -2.776572 3.232 
440 760 -7.281450 -2.522878 2.230 
456 760 -7.784181 -2.194997 2.898 
472 760 -8.400315 -1.882849 2.830 
488 760 -8.986785 -2.183044 1.843 
504 760 -9.204713 -2.490429 2.605 
520 760 -9.399736 -2.613850 2.252 
536 760 -9.800091 -2.512081 4.277 
552 760 -9.825116 -2.634308 1.567 
568 760 -9.412428 -2.837081 2.602 
584 760 -9.319821 -3.218976 3.231 
600 760 -8.978137 -3.281432 1.967 
616 760 -8.590907 -3.185887 2.951 
632 760 -8.540000 -2.941941 2.834 
648 760 -8.551828 -2.222322 2.261 
664 760 -8.464380 -1.627584 1.101 
680 760 -8.213847 -1.663652 1.258 
696 760 -8.019137 -2.177614 1.427 
712 760 -8.294462 -2.903260 2.250 
728 760 -8.068142 -2.220086 2.911 
744 760 -8.467875 -1.602019 2.150 
760 760 -8.380555 -0.983709 1.704 
776 760 -8.561023 -1.121822 7.274 
792 760 -8.660194 -1.328836 4.562 
808 760 -8.866262 -1.369594 1.362 
824 760 -8.674360 -1.124674 1.046 
840 760 -8.498191 -0.794050 1.789 
856 760 -8.732835 -0.570653 1.676 
872 760 -8.925820 -0.159148 2.644 
888 760 -8.794054 0.273522 1.198 
904 760 -9.017688 0.215068 2.095 
920 760 -9.512585 0.575645 1.482 
936 760 -9.548611 1.155177 1.856 
952 760 -9.293948 1.288350 2.017 
968 760 -8.889121 0.671494 2.295 
984 760 -8.403722 -0.721072 2.102 
1000 760 -8.119097 -2.588054 4.273 
1016 760 -7.784192 -3.148210 3.891 
1032 760 -7.437905 -2.676962 1.350 
1048 760 -7.170030 -1.831290 1.021 
1064 760 -7.233034 -1.221689 1.161 
1080 760 -7.511427 -1.062963 1.314 
1096 760 -7.278590 -0.839475 1.981 
1112 760 -7.023155 -0.779554 2.437 
1128 760 -6.363103 -0.526022 1.557 
1144 760 -4.911991 1.051901 1.933 
1160 760 -5.877709 8.149341 1.100 
1176 760 2.016702 10.077444 1.063 
1192 760 1.050169 -0.014943 1.263 
1208 760 0.083637 -10.107330 1.046 
1224 760 0.000781 -5.408887 1.005 
1240 760 -2.077244 -2.405012 1.236 
1256 760 -0.141057 -3.524277 1.064 
1272 760 0.819738 -5.227108 1.100 
8 744 -0.547058 -1.719435 1.098 
24 744 -0.840488 -1.817940 1.093 
40 744 5.255779 -1.791884 1.096 
56 744 10.289807 0.137671 1.089 
72 744 8.327705 -0.092838 1.067 
88 744 3.042378 0.204809 1.194 
104 744 -1.311161 -0.733182 1.229 
120 744 -7.930995 -1.281841 1.532 
136 744 -9.102774 -1.808828 1.311 
152 744 -9.161242 -2.648579 2.739 
168 744 -9.734407 -2.986478 2.705 
184 744 -9.807740 -2.356592 4.577 
200 744 -9.127804 -1.822320 4.181 
216 744 -8.748243 -1.720596 1.883 
232 744 -8.799881 -1.934181 2.083 
248 744 -8.738953 -1.877413 2.578 
264 744 -8.250320 -1.047221 2.331 
280 744 -7.821243 -0.615997 2.166 
296 744 -7.734593 -0.951662 3.247 
312 744 -7.717813 -1.380101 2.322 
328 744 -7.633120 -1.886632 4.116 
344 744 -7.532579 -2.217959 2.179 
360 744 -7.224286 -2.428600 2.795 
376 744 -6.776032 -2.617191 2.386 
392 744 -6.820419 -2.825838 3.497 
408 744 -6.836595 -2.975310 3.661 
424 744 -6.690410 -2.797065 3.884 
440 744 -7.113154 -2.607872 4.028 
456 744 -7.491405 -2.227408 3.995 
472 744 -8.435917 -1.918021 2.788 
488 744 -9.198298 -2.395097 2.096 
504 744 -9.291188 -2.838951 1.691 
520 744 -8.844110 -2.892235 1.294 
536 744 -9.297559 -2.397447 2.217 
552 744 -9.381034 -2.449511 1.783 
568 744 -8.856806 -2.627577 3.188 
584 744 -8.848689 -2.733694 2.157 
600 744 -8.707022 -2.933325 2.628 
616 744 -8.398512 -2.986775 2.538 
632 744 -8.191637 -2.924856 2.611 
648 744 -8.221542 -2.469494 2.624 
664 744 -7.808680 -1.519606 2.412 
680 744 -7.627210 -1.667260 2.511 
696 744 -7.717004 -2.396463 1.750 
712 744 -8.188139 -3.101224 2.190 
728 744 -8.338104 -2.370321 1.703 
744 744 -8.252134 -1.669962 2.760 
760 744 -8.495629 -1.240466 2.351 
776 744 -8.794561 -1.289373 2.952 
792 744 -8.884470 -1.364921 4.479 
808 744 -8.971968 -1.235848 1.466 
824 744 -9.059465 -1.106775 1.244 
840 744 -9.106690 -0.187106 1.531 
856 744 -9.113891 -0.206312 1.686 
872 744 -9.070402 -0.165197 1.141 
888 744 -9.032304 0.062831 1.863 
904 744 -9.500659 0.206279 2.696 
920 744 -10.010097 0.392642 1.919 
936 744 -10.214379 0.876004 1.521 
952 744 -9.912985 0.764503 1.581 
968 744 -9.255388 -0.311986 1.786 
984 744 -9.296915 -1.495714 2.275 
1000 744 -8.923993 -2.691089 2.394 
1016 744 -8.523532 -2.848701 3.285 
1032 744 -8.005829 -1.867295 1.972 
1048 744 -7.822591 -0.691082 1.955 
1064 744 -7.803289 -0.584701 1.686 
1080 744 -7.529633 -0.461669 1.368 
1096 744 -7.603069 -0.405150 1.028 
1112 744 -7.592418 -0.379746 1.902 
1128 744 -6.913899 -0.282491 1.387 
1144 744 -5.463780 0.557529 1.844 
1160 744 -5.582364 4.932119 1.262 
1176 744 -0.134622 5.091454 1.040 
1192 744 -1.999685 3.495448 1.120 
1208 744 -3.864749 1.899443 1.119 
1224 744 -2.955222 0.430423 1.459 
1240 744 -4.509756 1.209126 1.300 
1256 744 -3.368237 2.063456 1.053 
1272 744 -1.194984 0.992216 1.032 
8 728 -0.461859 -1.875511 1.031 
24 728 -0.520800 -1.754933 1.005 
40 728 2.984287 -2.037008 1.108 
56 728 8.471877 -2.294356 1.158 
72 728 6.275955 -3.018205 1.198 
88 728 0.738272 -2.024400 1.014 
104 728 -1.063829 -1.746787 1.003 
120 728 -9.800796 -2.072910 1.238 
136 728 -11.220444 -1.529828 1.759 
152 728 -10.388257 -2.456439 3.142 
168 728 -9.821920 -2.292538 2.227 
184 728 -9.482418 -1.766614 2.080 
200 728 -9.103598 -1.624243 4.928 
216 728 -8.818411 -1.765394 2.978 
232 728 -8.676948 -2.013753 2.695 
248 728 -8.299862 -1.692487 1.788 
264 728 -7.883995 -1.225494 1.915 
280 728 -7.423374 -0.894905 1.387 
296 728 -7.756347 -0.968441 2.262 
312 728 -7.836848 -1.251425 1.942 
328 728 -7.791307 -1.720582 10.845 
344 728 -7.621533 -2.018272 4.977 
360 728 -7.319389 -2.303796 3.035 
376 728 -6.956571 -2.683529 3.266 
392 728 -6.991649 -2.985498 2.639 
408 728 -7.049399 -3.091078 2.109 
424 728 -7.011190 -2.913928 4.255 
440 728 -7.182180 -2.796621 3.293 
456 728 -7.809243 -2.450618 3.030 
472 728 -8.506866 -2.098807 2.474 
488 728 -8.844130 -2.398060 3.037 
504 728 -8.644667 -2.926384 2.653 
520 728 -8.374256 -2.939201 1.258 
536 728 -8.311356 -2.603066 1.709 
552 728 -8.264132 -2.162002 3.533 
568 728 -8.307614 -2.511036 2.265 
584 728 -8.089053 -2.754734 2.344 
600 728 -8.436012 -2.870866 1.988 
616 728 -8.315946 -2.832306 2.094 
632 728 -8.062816 -2.759409 1.425 
648 728 -7.816828 -2.197457 2.538 
664 728 -7.594932 -1.779381 2.273 
680 728 -7.495262 -2.098944 1.846 
696 728 -8.025511 -2.521014 1.083 
712 728 -8.602426 -2.952825 1.499 
728 728 -8.552689 -2.814787 1.287 
744 728 -8.569623 -1.997919 2.079 
760 728 -9.177334 -1.460863 1.379 
776 728 -9.391832 -1.179344 1.700 
792 728 -9.291551 -1.182841 2.217 
808 728 -8.929532 -0.934188 1.136 
824 728 -8.567513 -0.685534 1.153 
840 728 -9.006399 -0.015168 2.999 
856 728 -9.102175 -0.056217 2.125 
872 728 -9.062709 -0.176264 1.114 
888 728 -9.270554 -0.147859 2.771 
904 728 -9.746806 -0.204204 1.997 
920 728 -10.213759 -0.196900 2.543 
936 728 -10.421238 -0.021512 3.383 
952 728 -10.391149 0.047809 2.308 
968 728 -9.502483 -1.211138 1.051 
984 728 -9.411020 -2.015488 1.775 
1000 728 -9.612157 -2.123717 2.803 
1016 728 -9.203690 -1.780676 2.423 
1032 728 -8.530251 -0.854952 1.601 
1048 728 -8.431574 -0.315321 3.290 
1064 728 -8.537133 -0.016811 3.672 
1080 728 -8.364922 0.115553 2.595 
1096 728 -7.903148 -0.142655 1.506 
1112 728 -8.034951 0.096404 2.278 
1128 728 -7.697122 -0.030941 2.161 
1144 728 -6.566240 0.538565 2.477 
1160 728 -5.287019 1.714897 3.049 
1176 728 0.899212 1.419267 1.081 
1192 728 1.285877 2.049509 1.305 
1208 728 -3.467862 2.638243 1.128 
1224 728 -3.021379 2.487599 1.037 
1240 728 -5.024715 3.450516 1.397 
1256 728 -0.720552 2.480351 1.429 
1272 728 3.283988 3.327191 1.383 
8 712 -0.376660 -2.031587 1.291 
24 712 -0.348893 -1.135323 1.411 
40 712 0.486049 -1.244167 1.856 
56 712 5.802713 -2.490895 1.159 
72 712 4.100282 -4.143346 1.151 
88 712 -1.565833 -4.253609 1.066 
104 712 -5.661156 -2.644614 1.505 
120 712 -10.509003 -1.667399 1.660 
136 712 -10.785768 -1.576930 2.016 
152 712 -10.221990 -1.793812 1.037 
168 712 -9.405407 -1.413750 1.278 
184 712 -9.287385 -1.448841 2.124 
200 712 -8.924937 -1.549780 2.388 
216 712 -8.754856 -1.877306 2.543 
232 712 -8.281729 -1.872020 1.655 
248 712 -7.882263 -1.792649 2.708 
264 712 -7.393666 -1.485753 1.492 
280 712 -7.116254 -1.305339 1.110 
296 712 -7.644441 -1.287909 3.717 
312 712 -7.892356 -1.433654 2.826 
328 712 -7.766225 -1.667490 8.749 
344 712 -7.699060 -1.955988 3.201 
360 712 -7.520665 -2.345297 3.186 
376 712 -7.209006 -2.815101 5.021 
392 712 -7.185776 -3.317855 2.066 
408 712 -7.097818 -3.238528 2.648 
424 712 -7.102103 -3.002399 2.891 
440 712 -7.447182 -3.008847 2.924 
456 712 -7.978887 -2.892727 2.565 
472 712 -8.533471 -2.418802 2.372 
488 712 -8.763267 -2.265560 3.437 
504 712 -8.514544 -2.596909 2.991 
520 712 -8.126116 -2.872308 2.146 
536 712 -8.276466 -2.539451 2.111 
552 712 -7.885583 -2.331078 3.136 
568 712 -7.878528 -2.460149 3.247 
584 712 -7.767303 -2.838290 2.995 
600 712 -7.956000 -3.158093 2.629 
616 712 -8.013850 -3.419036 2.037 
632 712 -7.836649 -2.910635 1.606 
648 712 -7.708538 -2.242653 2.446 
664 712 -7.602912 -2.031282 1.859 
680 712 -7.645715 -2.398591 1.082 
696 712 -8.474619 -2.701630 1.097 
712 712 -9.315177 -2.879024 1.544 
728 712 -9.294079 -2.733841 1.439 
744 712 -9.285841 -2.247349 2.263 
760 712 -9.692888 -1.576854 2.187 
776 712 -9.306140 -1.012079 2.165 
792 712 -9.126919 -0.758667 1.769 
808 712 -8.526325 -0.559525 1.397 
824 712 -7.925731 -0.360383 1.011 
840 712 -8.805326 0.190330 1.005 
856 712 -9.116022 0.201847 3.243 
872 712 -9.211035 0.023985 2.730 
888 712 -9.334162 -0.108040 1.978 
904 712 -9.758948 -0.380374 1.498 
920 712 -10.333581 -0.789525 2.273 
936 712 -10.748632 -1.013246 3.429 
952 712 -10.659658 -0.985253 2.262 
968 712 -9.847984 -1.515301 1.069 
984 712 -9.685987 -1.475942 1.367 
1000 712 -9.406651 -1.127414 1.984 
1016 712 -9.149455 -0.688144 1.652 
1032 712 -9.027899 -0.331704 2.201 
1048 712 -8.863599 -0.162705 3.621 
1064 712 -8.743233 -0.091243 3.251 
1080 712 -8.624064 0.185105 2.637 
1096 712 -8.293723 0.410314 3.031 
1112 712 -8.075633 0.348329 2.579 
1128 712 -8.027732 0.068954 1.989 
1144 712 -7.253385 0.167672 2.398 
1160 712 -6.545425 0.936423 2.599 
1176 712 -2.138256 0.965069 1.081 
1192 712 -1.919386 2.117125 1.026 
1208 712 -4.186820 2.987520 1.062 
1224 712 -3.087536 4.544775 1.317 
1240 712 -3.990730 -0.822087 1.422 
1256 712 1.927133 2.897246 1.065 
1272 712 2.541021 2.791346 1.112 
8 696 0.459175 -2.541040 1.166 
24 696 0.522589 1.270313 1.142 
40 696 0.066334 0.798930 1.438 
56 696 1.189785 -1.384584 1.285 
72 696 0.917845 -3.620694 1.107 
88 696 -3.666850 -3.795534 1.843 
104 696 -7.317609 -2.382866 1.228 
120 696 -10.381910 -1.731391 1.470 
136 696 -9.780650 -1.581342 3.135 
152 696 -9.404619 -1.611725 2.737 
168 696 -9.293552 -1.525100 1.014 
184 696 -9.184981 -1.441393 1.971 
200 696 -8.862358 -1.591344 1.298 
216 696 -8.526847 -1.918364 1.874 
232 696 -8.024942 -2.281602 1.757 
248 696 -7.556427 -2.141258 3.421 
264 696 -7.190195 -1.839261 1.217 
280 696 -7.059610 -1.644517 1.349 
296 696 -7.406595 -1.710117 4.757 
312 696 -7.863067 -1.878418 3.076 
328 696 -7.654518 -1.785872 1.274 
344 696 -7.698600 -1.913310 1.791 
360 696 -7.705047 -2.352133 1.465 
376 696 -7.400469 -2.916157 4.533 
392 696 -7.351355 -3.391552 2.239 
408 696 -7.076885 -3.192392 3.532 
424 696 -7.042691 -2.990552 2.315 
440 696 -7.439103 -3.123900 3.120 
456 696 -7.941720 -3.222341 1.987 
472 696 -8.491518 -2.733421 2.111 
488 696 -8.689311 -2.286510 5.536 
504 696 -8.757039 -2.188759 1.722 
520 696 -8.677102 -2.381266 3.991 
536 696 -8.463684 -2.443678 2.512 
552 696 -8.108485 -2.281745 3.158 
568 696 -7.703288 -2.259524 3.939 
584 696 -7.504824 -2.863562 6.364 
600 696 -7.475988 -3.445321 4.266 
616 696 -7.584478 -3.985483 2.589 
632 696 -7.495439 -3.598844 4.029 
648 696 -7.900450 -2.967797 1.397 
664 696 -7.903094 -2.552093 1.102 
680 696 -8.298842 -2.660720 1.210 
696 696 -8.498433 -2.817369 1.595 
712 696 -9.488337 -2.832298 1.778 
728 696 -9.511510 -2.722143 2.523 
744 696 -9.423268 -2.274422 1.218 
760 696 -9.363203 -1.450502 1.916 
776 696 -9.220448 -0.844814 1.635 
792 696 -8.718123 -0.552889 1.466 
808 696 -7.903335 -0.976527 1.406 
824 696 -8.113974 -0.846304 1.084 
840 696 -8.851041 -0.142153 1.541 
856 696 -9.494982 0.241746 2.386 
872 696 -9.647789 0.325044 2.838 
888 696 -9.649478 0.286480 2.887 
904 696 -9.859585 -0.221587 2.253 
920 696 -10.684560 -1.057034 2.842 
936 696 -10.833162 -1.556626 3.913 
952 696 -10.358753 -1.557458 3.004 
968 696 -10.071949 -1.535922 1.511 
984 696 -9.773600 -0.897478 2.855 
1000 696 -9.432525 -0.786476 2.453 
1016 696 -9.254724 -0.638171 2.925 
1032 696 -9.064618 -0.171799 2.202 
1048 696 -9.106034 -0.055330 2.506 
1064 696 -8.874293 0.019082 1.798 
1080 696 -8.736975 0.392073 1.200 
1096 696 -8.505130 0.592365 2.339 
1112 696 -7.934840 -0.029769 3.012 
1128 696 -8.366395 0.033483 1.615 
1144 696 -7.955120 -0.004368 3.131 
1160 696 -7.591927 0.786932 2.146 
1176 696 -5.582666 1.204916 1.113 
1192 696 -5.244222 2.270856 1.232 
1208 696 -4.905777 3.336797 1.109 
1224 696 -5.186768 -5.334283 1.192 
1240 696 -2.956746 -5.094689 1.138 
1256 696 0.841781 0.409570 1.205 
1272 696 1.798053 2.255501 1.089 
8 680 -4.236948 1.475595 1.120 
24 680 1.394072 3.675949 1.106 
40 680 -0.395406 2.827997 1.243 
56 680 -1.632289 -0.074566 1.007 
72 680 -2.264592 -3.098041 1.060 
88 680 -5.646994 -3.874412 1.090 
104 680 -8.599567 -2.731096 2.391 
120 680 -10.145707 -1.902593 2.255 
136 680 -9.614779 -1.777950 3.208 
152 680 -9.020358 -1.752868 1.962 
168 680 -9.181697 -1.636449 1.295 
184 680 -8.820365 -1.649739 3.904 
200 680 -8.490700 -1.748857 4.477 
216 680 -8.468570 -1.940875 3.452 
232 680 -8.077911 -2.375102 1.546 
248 680 -7.485963 -2.440237 1.354 
264 680 -7.311583 -2.191957 2.923 
280 680 -7.398955 -1.983399 3.416 
296 680 -7.580364 -1.986641 4.319 
312 680 -7.832090 -2.100957 2.472 
328 680 -7.641217 -1.824440 1.105 
344 680 -7.699523 -1.915524 1.429 
360 680 -7.867664 -2.503239 3.159 
376 680 -7.656702 -2.936800 1.660 
392 680 -7.502219 -3.074537 1.953 
408 680 -7.276240 -3.135627 2.992 
424 680 -6.909713 -3.165305 3.845 
440 680 -7.184183 -3.299752 3.592 
456 680 -7.718735 -3.274573 2.504 
472 680 -8.088767 -2.875375 4.068 
488 680 -8.125681 -2.376668 2.543 
504 680 -8.156201 -2.013854 1.628 
520 680 -8.328809 -2.238798 2.673 
536 680 -8.297040 -2.315676 2.932 
552 680 -8.077670 -2.148196 2.835 
568 680 -7.721617 -1.954212 1.954 
584 680 -7.648710 -2.881278 3.492 
600 680 -7.596311 -3.772320 3.505 
616 680 -7.506204 -4.148457 1.985 
632 680 -7.590596 -3.862309 3.708 
648 680 -8.044925 -3.361059 1.665 
664 680 -8.266432 -3.039959 1.072 
680 680 -8.385619 -2.942633 1.136 
696 680 -8.522247 -2.933108 1.614 
712 680 -8.647786 -3.201489 2.188 
728 680 -8.654914 -2.619574 2.552 
744 680 -8.374866 -1.707306 1.519 
760 680 -8.329554 -1.125361 2.814 
776 680 -8.485229 -0.972702 2.145 
792 680 -8.428362 -1.026155 2.091 
808 680 -8.443806 -1.473549 1.485 
824 680 -8.319355 -1.597044 1.120 
840 680 -8.890006 -0.739112 1.768 
856 680 -9.635366 -0.037334 1.873 
872 680 -10.053660 0.564693 3.153 
888 680 -10.054039 0.868619 4.459 
904 680 -10.122278 0.529358 4.661 
920 680 -10.589594 -0.839003 2.882 
936 680 -10.518998 -1.487393 1.949 
952 680 -10.220000 -1.382685 2.312 
968 680 -10.104411 -1.007992 1.702 
984 680 -9.844078 -0.417613 1.933 
1000 680 -9.421820 -0.645909 4.041 
1016 680 -9.359993 -0.588197 1.794 
1032 680 -9.474553 -0.074100 3.010 
1048 680 -9.265927 0.114523 3.147 
1064 680 -8.949949 0.054254 2.307 
1080 680 -8.846645 0.246145 1.878 
1096 680 -8.411425 0.084754 1.872 
1112 680 -8.196275 -0.054694 1.194 
1128 680 -8.461268 -0.073907 1.672 
1144 680 -8.218578 0.245652 2.779 
1160 680 -7.916987 0.933494 1.965 
1176 680 -6.927764 1.348655 1.143 
1192 680 -7.059234 1.822950 1.057 
1208 680 -7.146271 2.514340 1.055 
1224 680 -7.062668 -5.270910 1.331 
1240 680 -5.229603 -6.630167 1.086 
1256 680 0.228711 -3.386932 1.141 
1272 680 1.055085 1.719656 1.032 
8 664 -8.933072 5.492231 1.151 
24 664 -7.454543 8.168567 1.121 
40 664 -9.020280 7.506074 1.094 
56 664 -9.016114 3.944924 1.164 
72 664 -9.035155 3.358074 1.134 
88 664 -8.393909 -3.622881 1.879 
104 664 -9.810224 -2.602742 3.480 
120 664 -9.901383 -2.337107 3.416 
136 664 -9.992543 -2.071472 3.299 
152 664 -9.036227 -1.938049 2.393 
168 664 -8.733899 -1.929597 3.018 
184 664 -8.426562 -1.769041 2.497 
200 664 -8.088073 -1.757628 2.711 
216 664 -8.019848 -1.984908 1.844 
232 664 -7.565621 -2.495580 2.191 
248 664 -7.448019 -2.754135 1.431 
264 664 -7.572165 -2.516397 1.792 
280 664 -7.758261 -2.214057 2.021 
296 664 -7.732998 -2.079035 2.084 
312 664 -7.806328 -2.165175 2.427 
328 664 -7.958713 -1.973542 1.969 
344 664 -7.812592 -2.177868 2.052 
360 664 -8.013223 -2.778301 3.538 
376 664 -7.739077 -3.095083 1.734 
392 664 -7.495939 -3.205177 2.553 
408 664 -7.224430 -3.321492 2.913 
424 664 -6.903241 -3.348718 4.314 
440 664 -7.026315 -3.307824 1.729 
456 664 -7.437294 -3.014343 1.731 
472 664 -7.355724 -2.689836 1.746 
488 664 -7.641631 -2.330435 1.928 
504 664 -7.953484 -1.979481 1.477 
520 664 -8.082743 -2.248808 3.071 
536 664 -8.183355 -2.286072 3.734 
552 664 -8.180171 -2.022989 4.381 
568 664 -8.069773 -2.032609 2.669 
584 664 -8.440312 -3.068947 2.278 
600 664 -8.319515 -3.806996 1.057 
616 664 -8.046917 -4.083752 2.687 
632 664 -7.860647 -3.796154 5.008 
648 664 -8.317723 -3.354636 3.294 
664 664 -8.535711 -3.082951 2.928 
680 664 -8.177270 -3.069800 2.111 
696 664 -8.106557 -3.167935 2.351 
712 664 -8.067410 -3.179844 2.338 
728 664 -8.020626 -2.365785 3.193 
744 664 -8.004890 -1.488780 2.926 
760 664 -7.938897 -1.205189 2.303 
776 664 -8.058510 -1.194834 1.681 
792 664 -8.210074 -1.451315 1.725 
808 664 -8.002016 -1.928548 1.179 
824 664 -8.059250 -2.094496 2.321 
840 664 -8.525846 -1.379894 2.422 
856 664 -9.324458 -0.367909 2.188 
872 664 -10.167825 0.573017 3.224 
888 664 -10.140192 1.344478 2.938 
904 664 -10.018769 1.103015 3.445 
920 664 -9.722867 -0.501807 2.609 
936 664 -9.975515 -0.964238 1.107 
952 664 -10.071288 -0.607713 1.947 
968 664 -10.004577 -0.276945 1.766 
984 664 -9.445404 -0.581450 1.967 
1000 664 -9.274192 -0.702721 1.286 
1016 664 -9.485458 -0.250186 1.164 
1032 664 -9.623468 0.349187 2.115 
1048 664 -9.466593 0.196676 3.040 
1064 664 -9.171656 0.388164 2.833 
1080 664 -8.956316 0.100217 1.918 
1096 664 -8.534690 0.090092 1.059 
1112 664 -8.451609 -0.057101 1.021 
1128 664 -8.517331 0.169964 1.858 
1144 664 -8.001659 0.685094 1.499 
1160 664 -7.909673 1.204453 1.461 
1176 664 -8.272861 1.492393 1.397 
1192 664 -8.448765 1.749596 1.091 
1208 664 -9.635697 1.012546 1.124 
1224 664 -8.087696 -4.196015 1.219 
1240 664 -6.841690 -7.829153 1.034 
1256 664 0.113926 -6.942081 1.245 
1272 664 -2.344331 2.580679 1.232 
8 648 -13.629195 9.508867 1.220 
24 648 -15.224247 7.851863 1.248 
40 648 -16.819299 6.194859 1.163 
56 648 -16.399940 7.964413 1.187 
72 648 -11.784827 4.590650 1.167 
88 648 -9.983390 -1.666418 1.904 
104 648 -10.694782 -2.269304 3.724 
120 648 -10.372909 -2.139000 2.385 
136 648 -10.051036 -2.008695 2.180 
152 648 -9.657766 -2.155448 2.027 
168 648 -8.936511 -2.214820 2.251 
184 648 -8.440855 -1.971393 2.620 
200 648 -8.242680 -1.848879 2.709 
216 648 -7.745964 -2.087449 2.540 
232 648 -7.308083 -2.686279 1.522 
248 648 -7.347005 -2.959008 1.158 
264 648 -7.573936 -2.848657 1.107 
280 648 -7.629591 -2.574422 3.018 
296 648 -7.691494 -2.411571 1.911 
312 648 -7.842586 -2.503840 2.900 
328 648 -7.784186 -2.417613 1.831 
344 648 -7.775257 -2.229051 1.876 
360 648 -7.857640 -2.889552 3.086 
376 648 -7.728741 -3.313374 2.463 
392 648 -7.514666 -3.576071 3.280 
408 648 -7.062608 -3.640182 4.092 
424 648 -6.838820 -3.457666 2.323 
440 648 -7.160455 -3.238708 1.849 
456 648 -7.526761 -2.944117 3.280 
472 648 -7.238269 -2.734948 2.223 
488 648 -7.570447 -2.276037 1.385 
504 648 -8.113853 -2.016850 2.686 
520 648 -8.419445 -2.107192 3.319 
536 648 -8.542982 -2.238419 2.131 
552 648 -8.526260 -2.059866 2.954 
568 648 -8.666261 -2.110228 2.893 
584 648 -9.308464 -2.970987 2.745 
600 648 -9.029146 -3.636520 2.364 
616 648 -8.588729 -3.881255 3.313 
632 648 -8.150309 -3.721402 4.109 
648 648 -8.551129 -2.925484 1.586 
664 648 -9.034934 -2.994249 1.733 
680 648 -8.793034 -3.119502 2.405 
696 648 -8.177156 -3.269876 2.103 
712 648 -8.175329 -3.081454 1.420 
728 648 -8.300771 -2.151834 1.997 
744 648 -8.264817 -1.322074 2.532 
760 648 -8.117591 -1.201958 2.408 
776 648 -8.158115 -1.272097 2.444 
792 648 -8.313453 -1.536369 2.074 
808 648 -8.091689 -1.951469 1.122 
824 648 -8.032409 -2.016806 2.966 
840 648 -8.197031 -1.672640 2.379 
856 648 -8.978335 -0.831569 3.158 
872 648 -9.707926 0.317652 2.624 
888 648 -9.901137 1.293678 2.778 
904 648 -9.765566 1.155354 2.186 
920 648 -9.379798 -0.117470 2.602 
936 648 -9.633835 -0.666721 1.027 
952 648 -9.831724 -0.161443 1.346 
968 648 -9.582522 -0.279948 2.550 
984 648 -9.047655 -0.830561 1.851 
1000 648 -9.004960 -0.594140 2.086 
1016 648 -9.389216 0.071090 1.135 
1032 648 -9.672669 0.250564 3.405 
1048 648 -9.639258 0.177137 3.671 
1064 648 -9.858621 0.348285 1.649 
1080 648 -9.287364 0.314769 2.175 
1096 648 -8.644050 0.160464 2.110 
1112 648 -8.495768 0.093540 1.557 
1128 648 -8.376081 0.460271 1.922 
1144 648 -8.279850 0.906745 1.045 
1160 648 -8.048022 1.492970 1.395 
1176 648 -8.469190 1.054475 1.974 
1192 648 -9.563713 0.471604 1.640 
1208 648 -9.603787 0.310689 1.798 
1224 648 -9.112724 -3.121121 1.118 
1240 648 -7.067783 -2.044527 1.258 
1256 648 -3.294028 -2.918334 1.208 
1272 648 -5.743746 3.441703 1.183 
8 632 -15.758106 11.878712 1.032 
24 632 -17.810694 11.090955 1.058 
40 632 -19.863283 10.303198 1.165 
56 632 -18.822468 2.972578 1.089 
72 632 -13.983792 -0.257888 1.108 
88 632 -10.055131 -1.430489 3.057 
104 632 -10.015669 -2.240091 2.567 
120 632 -10.322565 -2.352265 1.931 
136 632 -10.154999 -2.234635 2.233 
152 632 -9.883243 -2.433894 1.603 
168 632 -9.140729 -2.547700 2.442 
184 632 -8.442179 -2.435220 3.882 
200 632 -8.292364 -2.239970 2.683 
216 632 -7.891181 -2.262096 2.798 
232 632 -7.366119 -2.720395 3.074 
248 632 -7.393347 -3.042824 1.099 
264 632 -7.550230 -2.961210 1.397 
280 632 -7.621567 -2.815027 1.668 
296 632 -7.821789 -2.718697 1.828 
312 632 -7.895832 -2.773275 2.361 
328 632 -7.648522 -2.815724 2.485 
344 632 -7.853192 -2.500623 1.994 
360 632 -7.682218 -2.926328 2.385 
376 632 -7.702949 -3.406472 2.171 
392 632 -7.446345 -3.638146 2.485 
408 632 -7.001490 -3.594905 3.328 
424 632 -6.705250 -3.176068 1.490 
440 632 -7.525079 -3.062229 1.417 
456 632 -7.694968 -2.682943 1.914 
472 632 -7.780979 -2.721614 1.235 
488 632 -8.333115 -2.388765 2.317 
504 632 -8.667340 -2.214288 2.501 
520 632 -9.036881 -2.186194 2.022 
536 632 -9.004258 -2.288089 2.006 
552 632 -9.093963 -2.102858 4.142 
568 632 -9.238889 -2.065309 2.933 
584 632 -9.380062 -2.714938 1.259 
600 632 -9.439823 -3.547544 1.858 
616 632 -8.665893 -3.767322 1.814 
632 632 -8.395128 -3.542587 2.142 
648 632 -8.594094 -3.094011 2.879 
664 632 -9.288312 -3.142766 3.918 
680 632 -9.641903 -3.149209 3.340 
696 632 -9.438510 -2.904131 2.169 
712 632 -8.994436 -2.353456 2.421 
728 632 -8.973968 -1.536331 1.843 
744 632 -9.000013 -0.761417 1.837 
760 632 -8.403696 -1.028062 1.385 
776 632 -8.842060 -0.938512 3.354 
792 632 -8.864925 -1.213177 3.356 
808 632 -8.394922 -1.639578 2.003 
824 632 -8.209059 -1.680473 1.300 
840 632 -8.391659 -1.241950 1.318 
856 632 -8.647108 -0.558355 1.625 
872 632 -8.558217 0.109801 3.009 
888 632 -8.898349 1.388793 2.146 