TITLE = "B01008"
VARIABLES = "x", "y", "u", "v", "sn"
ZONE T="Frame 0", I=80, J=50
8 792 0.000000 -0.000000 1.268 
24 792 0.000000 -0.000000 1.216 
40 792 1.276304 -11.127161 1.007 
56 792 2.427469 -20.718790 1.056 
72 792 5.529684 -24.732846 1.360 
88 792 8.631899 -28.746901 1.076 
104 792 7.367074 -23.555962 1.017 
120 792 6.102249 -18.365023 1.011 
136 792 4.616721 -11.108927 1.006 
152 792 -6.923160 1.105000 1.060 
168 792 -8.521111 1.496418 1.057 
184 792 -10.119062 1.887837 2.097 
200 792 -11.717013 2.279255 2.308 
216 792 -11.637320 2.350985 1.892 
232 792 -11.483425 2.532629 1.801 
248 792 -11.433148 2.079300 1.221 
264 792 -11.382872 1.625971 1.010 
280 792 -11.729616 1.499846 1.463 
296 792 -11.536548 0.864770 1.819 
312 792 -11.471588 0.483651 2.645 
328 792 -11.520632 0.448589 3.669 
344 792 -11.468961 0.544484 2.778 
360 792 -11.159180 0.876519 3.613 
376 792 -11.206234 1.157114 4.080 
392 792 -11.407940 1.040905 2.307 
408 792 -11.541755 1.212749 3.029 
424 792 -11.710808 1.388573 1.288 
440 792 -12.162410 1.329098 1.469 
456 792 -12.127487 1.159902 1.691 
472 792 -11.903822 1.382387 2.511 
488 792 -12.136779 1.968035 2.134 
504 792 -12.058921 2.088927 1.592 
520 792 -11.277232 1.610454 3.304 
536 792 -11.169428 0.964344 1.233 
552 792 -11.373083 0.207355 2.441 
568 792 -11.536503 -0.020969 3.113 
584 792 -11.431012 0.361801 2.599 
600 792 -11.086333 0.957517 2.958 
616 792 -10.773163 0.883264 2.174 
632 792 -10.557470 1.325837 2.073 
648 792 -10.929813 1.836726 2.337 
664 792 -11.371794 2.298792 2.054 
680 792 -11.499177 2.210880 2.488 
696 792 -11.047351 1.781482 1.871 
712 792 -10.622517 1.579528 4.360 
728 792 -10.614387 1.476604 3.617 
744 792 -10.468427 1.359299 2.466 
760 792 -10.045393 0.949240 4.143 
776 792 -9.548596 0.793144 2.104 
792 792 -9.051798 0.637048 1.496 
808 792 -8.963328 0.814791 1.291 
824 792 -9.132633 1.385684 1.510 
840 792 -9.578269 1.405094 3.115 
856 792 -9.548307 0.768400 2.697 
872 792 -9.272104 0.321343 3.452 
888 792 -10.272997 0.653858 2.185 
904 792 -11.197651 1.264877 3.344 
920 792 -11.059190 1.621120 4.073 
936 792 -10.376520 2.299270 3.826 
952 792 -9.383455 3.743577 3.973 
968 792 -8.997809 4.024288 5.171 
984 792 -8.612163 4.304998 1.329 
1000 792 -8.368308 3.708610 1.483 
1016 792 -8.385817 3.785261 4.261 
1032 792 -8.091100 4.028995 2.914 
1048 792 -8.169673 4.450726 2.642 
1064 792 -7.913011 4.268516 1.734 
1080 792 -7.609799 3.776909 1.538 
1096 792 -7.619325 3.183779 1.367 
1112 792 -8.255995 3.415022 1.383 
1128 792 -8.892665 3.646265 1.093 
1144 792 -9.529335 3.877507 1.045 
1160 792 -11.801136 3.323196 1.058 
1176 792 -12.974935 1.718355 1.989 
1192 792 -14.148734 0.113515 1.109 
1208 792 -5.969733 -1.012606 1.250 
1224 792 0.086014 -0.923203 1.101 
1240 792 -4.478327 -8.085216 1.123 
1256 792 0.000000 -0.000000 1.011 
1272 792 0.000000 -0.000000 1.020 
8 776 19.412298 -15.409650 1.382 
24 776 16.111951 -15.737271 1.337 
40 776 2.554890 -15.499936 1.066 
56 776 -0.523862 -20.346138 1.184 
72 776 -0.392304 -21.255298 1.356 
88 776 4.606436 -23.325301 1.012 
104 776 0.925674 -20.018719 1.004 
120 776 1.557823 -15.255892 1.029 
136 776 -0.924680 -9.239567 1.172 
152 776 -10.207644 1.487068 1.390 
168 776 -11.863468 2.893716 1.070 
184 776 -11.712588 2.537370 2.134 
200 776 -11.561709 2.181024 2.353 
216 776 -11.781894 1.406502 1.828 
232 776 -11.700259 1.809648 1.792 
248 776 -11.385551 2.148331 1.272 
264 776 -11.359202 1.459935 1.045 
280 776 -11.434695 1.268985 1.513 
296 776 -11.648149 0.874176 1.843 
312 776 -11.605490 0.528567 2.373 
328 776 -11.603214 0.533509 3.577 
344 776 -11.530368 0.645629 2.734 
360 776 -11.253803 0.995415 3.506 
376 776 -11.261386 1.219073 4.010 
392 776 -11.508975 1.185699 2.338 
408 776 -11.472894 1.273208 2.714 
424 776 -11.922663 1.576835 1.233 
440 776 -12.269965 1.522655 1.445 
456 776 -12.298011 1.378354 1.595 
472 776 -12.105200 1.544363 2.623 
488 776 -12.293436 2.081487 2.346 
504 776 -12.149037 2.163192 1.541 
520 776 -11.447073 1.655436 3.386 
536 776 -11.401929 1.040889 1.215 
552 776 -11.566242 0.392131 2.346 
568 776 -11.696311 0.234349 3.002 
584 776 -11.621346 0.489417 2.659 
600 776 -11.322374 0.959728 2.875 
616 776 -11.006106 0.829222 2.461 
632 776 -10.754809 1.179364 2.112 
648 776 -11.048670 1.602141 2.492 
664 776 -11.409282 2.017621 2.021 
680 776 -11.479822 1.919821 2.524 
696 776 -11.035315 1.552040 2.058 
712 776 -10.725071 1.429588 4.228 
728 776 -10.741409 1.317919 3.962 
744 776 -10.530405 1.270785 2.432 
760 776 -10.021743 0.955222 4.022 
776 776 -10.006755 0.771908 2.024 
792 776 -9.225181 0.670948 1.501 
808 776 -8.738125 0.743151 1.312 
824 776 -8.908854 1.137295 1.516 
840 776 -9.861636 1.057522 3.375 
856 776 -9.586713 0.478297 2.764 
872 776 -9.207809 0.152251 3.404 
888 776 -10.226293 0.552821 2.259 
904 776 -11.094897 1.128536 3.822 
920 776 -10.933595 1.474663 3.885 
936 776 -10.250887 2.112386 3.724 
952 776 -9.300055 3.378115 4.674 
968 776 -8.862187 4.086090 4.640 
984 776 -8.747865 3.853171 1.412 
1000 776 -8.408904 3.496296 1.556 
1016 776 -8.487678 3.763574 3.993 
1032 776 -8.278911 4.016007 3.091 
1048 776 -8.356778 4.391742 2.541 
1064 776 -8.370754 4.401083 1.922 
1080 776 -7.813039 3.834710 1.514 
1096 776 -7.740178 3.332243 1.437 
1112 776 -7.837893 3.217610 1.431 
1128 776 -8.428282 3.614318 1.148 
1144 776 -8.739778 3.859630 1.073 
1160 776 -12.419317 3.639755 1.027 
1176 776 -12.266495 2.214109 2.083 
1192 776 -8.742520 0.137986 1.118 
1208 776 -3.442401 2.552632 1.371 
1224 776 0.884067 1.295251 1.047 
1240 776 -0.099510 -3.587838 1.238 
1256 776 -3.218754 -22.609938 1.105 
1272 776 -2.675949 -18.816011 1.131 
8 760 14.447102 -15.038311 1.046 
24 760 10.981097 -15.076602 1.032 
40 760 3.833475 -19.872711 1.192 
56 760 -3.475192 -19.973486 1.305 
72 760 -8.210816 -19.721803 1.178 
88 760 -15.742483 -13.578683 1.206 
104 760 -0.996686 -8.432566 1.168 
120 760 -6.073559 -7.139744 1.019 
136 760 -6.924317 -3.622848 1.204 
152 760 -11.766588 2.394997 2.231 
168 760 -11.221112 2.393395 1.759 
184 760 -11.798151 1.994693 1.050 
200 760 -11.362777 1.740818 1.192 
216 760 -11.601961 1.386244 1.809 
232 760 -11.541530 1.553034 1.813 
248 760 -11.389809 1.674570 1.837 
264 760 -10.968180 1.372910 2.610 
280 760 -11.159440 1.019752 2.482 
296 760 -11.694831 0.800153 1.522 
312 760 -11.950764 0.337430 1.854 
328 760 -11.824447 0.500972 2.517 
344 760 -11.604219 0.675523 1.379 
360 760 -11.339249 0.918419 2.349 
376 760 -11.348105 1.063657 2.013 
392 760 -11.679923 1.137393 2.288 
408 760 -12.086056 1.346996 2.019 
424 760 -12.472309 1.698331 2.424 
440 760 -12.647938 1.606548 1.361 
456 760 -12.571104 1.585980 1.551 
472 760 -12.311884 1.525731 1.789 
488 760 -12.433288 1.821602 2.512 
504 760 -12.229770 1.875600 2.187 
520 760 -11.761728 1.602932 3.950 
536 760 -11.619650 1.222914 1.284 
552 760 -11.855105 0.644012 1.742 
568 760 -11.788490 0.648150 2.423 
584 760 -11.609845 1.015014 2.549 
600 760 -11.727736 1.018165 3.301 
616 760 -11.362567 1.013324 3.275 
632 760 -10.955022 1.041310 3.637 
648 760 -11.053589 1.159173 3.132 
664 760 -11.330346 1.419589 3.698 
680 760 -10.999193 1.647153 2.517 
696 760 -10.823111 1.387815 1.710 
712 760 -10.785371 1.269918 3.878 
728 760 -10.813739 1.182447 3.023 
744 760 -10.618157 1.264977 3.841 
760 760 -10.314893 1.142900 2.829 
776 760 -10.255863 1.037607 1.265 
792 760 -8.866782 0.946836 1.891 
808 760 -7.863704 0.722868 2.600 
824 760 -8.233544 0.586393 1.091 
840 760 -9.846580 0.394886 1.037 
856 760 -8.741994 -0.055268 2.528 
872 760 -8.976581 -0.087714 3.282 
888 760 -10.296121 0.317872 2.051 
904 760 -11.005468 0.835565 1.426 
920 760 -10.742655 1.235066 2.170 
936 760 -10.017896 1.954827 2.343 
952 760 -9.388744 2.681570 2.043 
968 760 -9.212619 3.138035 3.356 
984 760 -8.796839 2.784116 1.500 
1000 760 -8.501411 3.051637 1.197 
1016 760 -8.551422 3.888132 2.600 
1032 760 -8.559998 4.210514 3.606 
1048 760 -8.519973 4.553810 2.188 
1064 760 -8.438505 4.448149 2.220 
1080 760 -8.062744 3.940057 1.071 
1096 760 -7.965539 3.648512 1.587 
1112 760 -7.981370 3.592072 2.285 
1128 760 -7.917617 3.747836 2.068 
1144 760 -7.950220 3.841752 1.017 
1160 760 -12.601239 3.579709 1.259 
1176 760 -11.140208 2.695487 1.331 
1192 760 -7.412271 4.186406 1.001 
1208 760 -0.915070 6.117870 1.286 
1224 760 1.682119 3.513704 1.096 
1240 760 4.279308 0.909539 1.069 
1256 760 2.788007 -4.488323 1.037 
1272 760 2.862573 -17.614175 1.015 
8 744 4.841870 -8.167852 1.110 
24 744 1.140615 -8.394571 1.137 
40 744 -5.775215 -8.222067 1.058 
56 744 -12.148580 -7.946281 1.217 
72 744 -16.150067 -7.187599 1.139 
88 744 -13.985900 -7.785707 1.162 
104 744 -12.184701 -2.601555 1.029 
120 744 -13.404224 -0.245094 1.074 
136 744 -12.923954 1.993872 1.016 
152 744 -10.857935 2.128303 1.514 
168 744 -10.578757 1.893074 2.558 
184 744 -11.091509 1.672720 2.475 
200 744 -11.090435 1.328118 1.772 
216 744 -11.344188 1.385732 2.161 
232 744 -11.382800 1.296421 2.270 
248 744 -11.197852 1.588109 3.674 
264 744 -10.999140 1.372328 4.626 
280 744 -11.253389 1.083053 3.377 
296 744 -11.853434 0.781497 1.297 
312 744 -11.953423 0.490391 2.159 
328 744 -11.929590 0.529280 1.720 
344 744 -11.777355 0.817732 2.065 
360 744 -11.792894 1.106584 3.708 
376 744 -11.831803 1.170612 2.106 
392 744 -12.000035 0.994197 2.413 
408 744 -12.663386 1.282711 1.364 
424 744 -12.804110 1.452780 1.715 
440 744 -12.946446 1.662969 2.890 
456 744 -12.708284 1.724407 3.740 
472 744 -12.815264 1.301270 1.742 
488 744 -12.623308 1.553811 1.924 
504 744 -12.370802 1.530437 1.715 
520 744 -12.133013 1.225621 2.287 
536 744 -12.107967 1.069141 2.510 
552 744 -12.191582 1.074069 2.597 
568 744 -11.846408 1.263662 2.510 
584 744 -11.734446 1.263819 2.258 
600 744 -11.755889 1.118570 2.682 
616 744 -11.462141 1.061096 4.653 
632 744 -11.014537 0.998483 6.314 
648 744 -10.903305 1.003243 2.215 
664 744 -10.947326 1.104340 3.738 
680 744 -10.784079 1.223066 1.651 
696 744 -10.537624 1.287331 1.163 
712 744 -10.710229 1.142598 3.695 
728 744 -10.672173 1.138269 1.843 
744 744 -10.269519 1.189837 2.392 
760 744 -9.739629 1.247118 4.127 
776 744 -9.785609 1.151480 2.694 
792 744 -6.078311 1.003780 1.481 
808 744 -3.648295 0.739618 1.381 
824 744 -7.253882 0.487203 1.319 
840 744 -9.531102 0.275393 1.835 
856 744 -8.926583 -0.187597 1.643 
872 744 -8.683537 -0.267897 2.191 
888 744 -10.130892 0.303375 2.859 
904 744 -10.687609 0.628559 2.191 
920 744 -10.458087 1.037737 2.203 
936 744 -9.875001 1.695321 2.257 
952 744 -9.294231 2.372921 2.716 
968 744 -9.160700 2.740409 2.115 
984 744 -8.755360 2.903657 1.732 
1000 744 -8.705974 3.108882 1.945 
1016 744 -8.824447 4.164523 3.107 
1032 744 -8.748845 4.051329 5.557 
1048 744 -8.544134 4.037332 2.088 
1064 744 -8.348193 4.323219 2.635 
1080 744 -8.215307 4.146676 2.690 
1096 744 -8.181841 4.007934 1.950 
1112 744 -7.899548 4.197489 2.468 
1128 744 -7.727883 4.152124 2.486 
1144 744 -7.261145 4.054883 1.501 
1160 744 -9.683501 3.744245 1.735 
1176 744 -9.787478 5.346257 1.104 
1192 744 -8.778516 8.133070 1.097 
1208 744 -2.024081 0.181672 1.033 
1224 744 4.270911 -0.517736 1.097 
1240 744 3.374549 -0.150768 1.026 
1256 744 5.285157 -3.711192 1.136 
1272 744 2.253091 -12.084798 1.049 
8 728 -0.589722 2.401652 1.014 
24 728 -4.728246 1.838645 1.007 
40 728 -9.258280 4.611853 1.076 
56 728 -16.078284 3.359002 1.017 
72 728 -19.575813 2.776257 1.051 
88 728 -12.229317 -1.992731 1.334 
104 728 -12.911721 -0.833105 1.268 
120 728 -13.380927 0.902814 1.601 
136 728 -12.681788 2.322678 1.497 
152 728 -10.512307 1.956954 1.347 
168 728 -10.435886 1.656076 2.825 
184 728 -10.461075 1.354415 2.285 
200 728 -10.634640 1.429853 1.907 
216 728 -11.226963 1.598699 1.870 
232 728 -11.661001 1.599983 2.343 
248 728 -11.699130 1.573418 2.526 
264 728 -11.596410 1.419409 2.975 
280 728 -11.895503 1.243063 1.650 
296 728 -12.112112 1.063380 2.665 
312 728 -12.223928 0.747066 2.995 
328 728 -12.015863 0.844936 2.752 
344 728 -11.897356 1.063232 3.960 
360 728 -12.147567 1.217097 3.431 
376 728 -12.478462 1.157314 2.655 
392 728 -12.485978 1.104799 2.505 
408 728 -12.777225 1.097253 1.470 
424 728 -13.079674 1.165745 1.186 
440 728 -12.942216 1.283451 1.756 
456 728 -12.738151 1.537550 2.740 
472 728 -12.717796 1.476142 2.621 
488 728 -12.627390 1.279240 1.995 
504 728 -12.427357 1.214159 2.995 
520 728 -12.246193 1.061945 3.997 
536 728 -12.214426 1.089182 3.672 
552 728 -12.161160 1.126873 2.374 
568 728 -11.965787 0.982230 2.427 
584 728 -11.825715 1.291357 4.267 
600 728 -11.749860 1.201744 3.578 
616 728 -11.430493 1.081875 3.981 
632 728 -10.907618 1.059072 3.660 
648 728 -10.618698 0.958975 3.873 
664 728 -10.715239 0.872070 2.674 
680 728 -10.617333 1.084503 1.527 
696 728 -10.425503 1.299811 1.099 
712 728 -10.565090 1.119238 2.239 
728 728 -10.345171 1.112011 1.637 
744 728 -9.970958 1.266197 2.191 
760 728 -9.516490 1.481123 3.036 
776 728 -9.236751 1.495899 3.134 
792 728 -4.389437 1.227755 1.740 
808 728 -4.261882 0.710151 1.304 
824 728 -6.274220 0.388012 1.231 
840 728 -9.215623 0.155900 1.532 
856 728 -9.111172 -0.319925 1.849 
872 728 -8.923092 -0.201992 2.146 
888 728 -9.800084 0.406337 2.301 
904 728 -10.428461 0.813396 1.932 
920 728 -10.415960 1.094830 1.464 
936 728 -9.637721 1.599290 3.257 
952 728 -8.898129 2.208436 5.780 
968 728 -8.542232 2.644604 3.902 
984 728 -8.713880 3.023199 1.336 
1000 728 -8.415801 3.970565 2.087 
1016 728 -8.629293 3.931341 1.498 
1032 728 -8.895368 4.110088 1.796 
1048 728 -8.807839 4.149206 1.401 
1064 728 -8.232150 4.206327 2.368 
1080 728 -7.790725 4.300058 3.299 
1096 728 -7.949682 4.394766 3.638 
1112 728 -7.898650 4.693825 4.358 
1128 728 -7.538148 4.556411 3.305 
1144 728 -6.943857 4.303518 1.852 
1160 728 -6.842513 4.158239 1.154 
1176 728 -8.193015 4.583709 1.314 
1192 728 -8.292939 8.222138 1.116 
1208 728 -3.402242 -5.476596 1.085 
1224 728 2.193668 -0.615877 1.170 
1240 728 2.469789 -1.211076 1.163 
1256 728 4.223038 -0.909623 1.007 
1272 728 1.643610 -6.555420 1.059 
8 712 -4.323064 11.522397 1.168 
24 712 -8.052785 11.337555 1.366 
40 712 -13.974862 12.994100 1.129 
56 712 -15.818015 4.780231 1.006 
72 712 -13.853591 1.910231 1.425 
88 712 -11.766820 -0.207812 1.322 
104 712 -12.224112 -0.479916 1.015 
120 712 -12.485494 1.083145 2.793 
136 712 -11.941631 1.891639 3.660 
152 712 -10.820837 1.828232 2.048 
168 712 -10.293014 1.419079 2.827 
184 712 -10.473941 1.485905 2.984 
200 712 -10.591712 1.389783 1.979 
216 712 -11.089832 1.458489 1.858 
232 712 -11.989992 1.404393 1.674 
248 712 -12.045381 1.422802 2.072 
264 712 -12.077193 1.536808 2.158 
280 712 -12.292380 1.620039 3.282 
296 712 -12.634331 1.304347 3.205 
312 712 -12.500807 1.091715 3.148 
328 712 -12.313060 1.071886 7.231 
344 712 -12.196759 1.136252 7.734 
360 712 -12.541677 1.119987 4.211 
376 712 -12.891122 0.951581 1.933 
392 712 -12.898024 0.899155 1.927 
408 712 -13.031998 1.153141 2.023 
424 712 -12.991604 1.145426 1.350 
440 712 -12.920102 1.362331 1.712 
456 712 -12.560223 1.493605 2.867 
472 712 -12.264451 1.465164 2.346 
488 712 -12.164120 1.405518 2.891 
504 712 -12.220316 1.233317 2.228 
520 712 -12.381869 1.094058 1.687 
536 712 -12.245731 1.473216 3.314 
552 712 -12.105398 1.489710 2.877 
568 712 -12.125266 1.190373 2.839 
584 712 -12.117769 1.151251 2.994 
600 712 -12.072091 1.051320 1.938 
616 712 -11.682130 0.951571 3.540 
632 712 -11.049630 0.846229 2.547 
648 712 -10.645682 0.625347 1.716 
664 712 -10.478736 0.783377 3.106 
680 712 -10.206465 1.251033 3.014 
696 712 -10.041205 1.420406 3.302 
712 712 -10.160829 1.082560 1.741 
728 712 -9.952493 1.109588 1.236 
744 712 -9.680252 1.363332 1.159 
760 712 -9.795851 1.780863 2.388 
776 712 -9.844340 1.644411 1.259 
792 712 -8.258159 1.153788 1.720 
808 712 -4.875468 0.680684 1.414 
824 712 -6.887807 0.358545 1.201 
840 712 -8.900145 0.036406 1.529 
856 712 -8.910360 0.014404 2.406 
872 712 -8.911091 -0.016752 2.167 
888 712 -9.733157 0.365646 2.854 
904 712 -10.073332 1.089745 2.992 
920 712 -9.738334 1.193809 2.188 
936 712 -9.275768 1.484326 2.088 
952 712 -8.187205 2.058094 5.438 
968 712 -7.469768 2.478795 4.729 
984 712 -6.929622 3.081109 2.303 
1000 712 -6.942702 4.061369 1.364 
1016 712 -7.994244 4.114622 2.198 
1032 712 -8.550979 4.209096 4.452 
1048 712 -8.569114 4.187264 3.327 
1064 712 -8.009430 4.154272 1.719 
1080 712 -7.419765 4.154862 2.449 
1096 712 -7.312726 4.376154 4.549 
1112 712 -7.632579 4.911261 2.642 
1128 712 -7.454391 4.789252 2.457 
1144 712 -7.274982 4.465889 2.050 
1160 712 -7.150711 4.480101 2.257 
1176 712 -6.598553 3.821162 1.260 
1192 712 -7.807363 8.311206 1.207 
1208 712 -3.310068 -1.876579 1.050 
1224 712 0.116425 -0.714017 1.014 
1240 712 1.214479 2.274220 1.027 
1256 712 1.472911 3.403109 1.002 
1272 712 1.034129 -1.026042 1.036 
8 696 -4.840196 12.686177 1.143 
24 696 -10.541373 12.109268 1.176 
40 696 -13.300927 10.827026 1.569 
56 696 -15.557746 6.201460 1.219 
72 696 -14.566485 3.632371 1.184 
88 696 -12.055022 1.488302 1.223 
104 696 -11.653337 1.017565 1.008 
120 696 -11.808085 1.818055 1.890 
136 696 -11.862822 1.895915 2.184 
152 696 -10.631817 0.869316 1.870 
168 696 -11.122144 1.164769 2.069 
184 696 -10.995508 1.234670 3.040 
200 696 -10.940360 1.172608 2.326 
216 696 -11.169420 1.297211 1.001 
232 696 -11.767095 1.278370 1.082 
248 696 -12.097151 1.230076 1.899 
264 696 -12.180277 1.599327 2.581 
280 696 -12.424696 1.854062 2.651 
296 696 -12.728846 1.656367 1.544 
312 696 -12.625604 1.083587 2.459 
328 696 -12.424901 1.132499 1.609 
344 696 -12.232682 1.143435 2.046 
360 696 -12.603162 0.926580 1.860 
376 696 -12.821249 0.950021 2.529 
392 696 -12.910506 0.841299 1.754 
408 696 -12.930488 1.405436 1.570 
424 696 -12.783219 1.789590 2.190 
440 696 -12.552648 2.029642 3.515 
456 696 -12.131199 1.982270 2.709 
472 696 -12.034012 1.709813 2.893 
488 696 -12.022308 1.475902 3.112 
504 696 -11.921404 1.285341 2.026 
520 696 -12.189735 1.353233 1.211 
536 696 -12.034951 1.732272 1.259 
552 696 -12.041980 1.668077 2.821 
568 696 -12.283358 1.205086 2.552 
584 696 -12.288675 1.022556 2.743 
600 696 -12.208832 0.891755 2.371 
616 696 -11.759266 1.014135 1.687 
632 696 -11.193510 1.082981 1.714 
648 696 -10.873697 0.918948 2.020 
664 696 -10.683191 0.728910 2.295 
680 696 -10.301759 1.138166 1.527 
696 696 -10.021509 1.222516 2.240 
712 696 -9.890342 1.151707 2.945 
728 696 -9.617950 0.984376 2.612 
744 696 -9.435398 1.243060 3.373 
760 696 -9.593300 1.590411 1.855 
776 696 -9.811400 1.408465 1.026 
792 696 -8.978666 1.129263 1.343 
808 696 -8.175738 0.579421 1.541 
824 696 -8.458531 0.126442 1.218 
840 696 -9.610589 0.165061 2.226 
856 696 -9.207902 0.379710 2.904 
872 696 -8.871162 0.433146 2.270 
888 696 -9.505094 0.760448 1.868 
904 696 -9.708724 1.588093 2.224 
920 696 -8.800926 1.266365 1.788 
936 696 -8.336905 1.791309 1.681 
952 696 -7.680055 2.346154 1.749 
968 696 -7.151240 2.813142 1.437 
984 696 -6.569717 4.323676 1.585 
1000 696 -6.261893 4.528469 1.267 
1016 696 -6.929593 4.238655 2.022 
1032 696 -7.671091 4.132229 2.979 
1048 696 -7.834769 4.043192 4.118 
1064 696 -7.459312 3.694652 3.076 
1080 696 -6.858038 3.677870 3.630 
1096 696 -6.474768 4.120482 2.564 
1112 696 -7.056839 4.672675 1.314 
1128 696 -7.081141 4.458414 2.092 
1144 696 -7.306901 4.630627 2.558 
1160 696 -6.995213 4.495449 2.214 
1176 696 -6.976356 4.671292 1.281 
1192 696 -6.760664 3.580297 1.146 
1208 696 -3.160631 1.417038 1.125 
1224 696 -0.905851 2.135916 1.258 
1240 696 -0.123354 4.920170 1.208 
1256 696 -0.223145 7.253551 1.175 
1272 696 -2.178288 6.613006 1.154 
8 680 -7.108179 11.371508 1.038 
24 680 -13.029961 12.880981 1.035 
40 680 -15.300641 10.634864 1.083 
56 680 -14.140562 6.053532 1.401 
72 680 -13.854800 3.572018 1.304 
88 680 -13.273751 2.525951 2.730 
104 680 -12.376011 1.851727 2.991 
120 680 -12.116878 1.851202 3.383 
136 680 -11.919867 1.669743 1.304 
152 680 -11.014527 1.129385 1.046 
168 680 -11.270371 1.345003 3.386 
184 680 -11.332046 1.349169 6.541 
200 680 -11.336815 1.242031 2.376 
216 680 -11.138519 1.129283 1.614 
232 680 -10.953737 1.281975 1.926 
248 680 -11.284813 1.368862 1.744 
264 680 -11.650174 1.603936 2.518 
280 680 -11.967173 1.770249 2.667 
296 680 -12.545388 1.567010 1.505 
312 680 -12.750400 1.075459 2.799 
328 680 -12.351176 1.032314 1.639 
344 680 -12.058021 1.091564 2.927 
360 680 -12.040902 1.092484 1.666 
376 680 -12.272908 0.960179 2.069 
392 680 -12.453073 0.855846 2.031 
408 680 -12.314389 1.580151 2.260 
424 680 -12.278684 2.571310 3.370 
440 680 -12.385530 2.650777 2.734 
456 680 -11.788691 2.632635 3.194 
472 680 -11.676130 2.138707 2.670 
488 680 -11.831316 1.693017 2.095 
504 680 -11.686770 1.414973 1.446 
520 680 -11.645737 1.483187 1.633 
536 680 -11.367023 1.550192 1.068 
552 680 -11.729114 1.487150 1.988 
568 680 -12.164780 1.301082 2.088 
584 680 -12.459582 0.893862 2.097 
600 680 -12.345573 0.732190 2.612 
616 680 -11.836403 1.076699 2.530 
632 680 -10.939467 1.805806 2.380 
648 680 -10.688072 1.673600 2.791 
664 680 -10.820969 1.223683 3.718 
680 680 -10.782025 0.937910 2.745 
696 680 -10.444535 0.640663 2.588 
712 680 -9.905212 0.725760 2.686 
728 680 -9.611503 0.630776 3.056 
744 680 -9.145373 1.030490 1.628 
760 680 -9.057867 1.201569 1.823 
776 680 -8.991276 1.022003 1.865 
792 680 -8.419301 0.345263 1.229 
808 680 -8.559363 0.248767 1.080 
824 680 -9.191878 0.339660 1.693 
840 680 -9.319838 0.500315 1.482 
856 680 -8.983536 0.737342 2.360 
872 680 -8.698497 1.235426 2.547 
888 680 -9.043443 1.820211 2.261 
904 680 -9.040349 2.144018 2.013 
920 680 -7.973310 2.267610 2.213 
936 680 -7.265235 2.353124 2.972 
952 680 -7.204062 2.786734 1.783 
968 680 -7.079981 3.672543 2.549 
984 680 -6.026590 3.992574 1.431 
1000 680 -6.136787 4.458204 1.418 
1016 680 -6.387769 3.826094 1.052 
1032 680 -6.664228 3.977155 1.085 
1048 680 -6.953296 3.582609 1.094 
1064 680 -6.731020 3.136696 1.482 
1080 680 -6.662202 3.209352 2.111 
1096 680 -6.594959 3.780088 1.818 
1112 680 -6.964117 4.186470 1.271 
1128 680 -7.229064 4.346103 1.678 
1144 680 -7.429217 4.512380 3.782 
1160 680 -7.523623 4.665011 3.510 
1176 680 -7.324476 4.680161 1.375 
1192 680 -6.035913 3.266555 1.045 
1208 680 -3.120674 2.433005 1.378 
1224 680 -2.656934 3.019183 1.107 
1240 680 -2.857551 7.228847 1.070 
1256 680 -3.287930 11.254350 1.068 
1272 680 -4.702411 11.199170 1.098 
8 664 -3.994610 5.373362 1.041 
24 664 -11.378168 11.194661 1.027 
40 664 -13.633879 8.565139 1.262 
56 664 -12.723377 5.905604 1.032 
72 664 -13.143115 3.511664 1.027 
88 664 -13.461766 2.779473 2.289 
104 664 -13.012409 1.880109 2.800 
120 664 -12.349265 1.551924 1.867 
136 664 -11.772087 1.171470 2.029 
152 664 -11.079394 1.288763 1.533 
168 664 -10.912667 1.445258 2.941 
184 664 -11.448355 1.473681 3.039 
200 664 -11.439630 1.416626 1.986 
216 664 -11.277907 1.153018 2.515 
232 664 -11.041924 1.314838 1.689 
248 664 -11.002518 1.377423 3.049 
264 664 -11.534326 1.169765 1.822 
280 664 -12.295507 0.646453 1.518 
296 664 -12.408372 0.833597 2.103 
312 664 -12.437960 0.816821 1.361 
328 664 -12.232304 0.848069 1.610 
344 664 -11.847484 0.987532 2.311 
360 664 -11.637907 0.964686 2.984 
376 664 -11.518917 0.817860 1.811 
392 664 -11.530945 0.734621 1.817 
408 664 -11.501699 1.376931 3.287 
424 664 -11.848115 2.387341 4.890 
440 664 -11.670254 3.101300 2.377 
456 664 -11.102580 3.172424 2.362 
472 664 -11.038183 2.728965 2.244 
488 664 -11.465409 1.878419 1.037 
504 664 -11.206003 1.557063 2.466 
520 664 -11.030101 1.200704 1.541 
536 664 -10.778418 1.288790 1.146 
552 664 -10.806353 1.347793 1.835 
568 664 -11.363749 1.284281 2.578 
584 664 -11.228796 1.388505 2.139 
600 664 -10.789355 1.657051 1.917 
616 664 -9.470410 2.577379 1.918 
632 664 -9.410880 2.990445 1.968 
648 664 -9.183756 2.922810 2.467 
664 664 -9.831383 2.258001 2.449 
680 664 -10.440297 1.479791 3.258 
696 664 -10.255216 0.858862 2.225 
712 664 -9.714109 0.624953 3.985 
728 664 -9.368619 0.493793 2.204 
744 664 -9.155843 0.891836 2.351 
760 664 -9.035928 1.135985 2.482 
776 664 -8.965322 0.995674 2.133 
792 664 -8.550552 0.438852 1.173 
808 664 -8.723273 0.195406 1.208 
824 664 -9.092657 0.457116 1.147 
840 664 -8.920164 0.797501 1.441 
856 664 -8.639524 1.488327 2.880 
872 664 -8.685741 2.090538 2.910 
888 664 -8.561301 2.182432 3.634 
904 664 -8.057174 2.352443 2.740 
920 664 -7.375731 2.832992 2.735 
936 664 -7.207177 3.043144 3.472 
952 664 -6.594274 3.529681 3.631 
968 664 -6.239221 3.589969 3.993 
984 664 -5.807410 3.513164 2.579 
1000 664 -6.053504 3.733928 2.066 
1016 664 -6.469434 4.037260 3.500 
1032 664 -6.410825 3.878587 1.487 
1048 664 -6.384270 3.517656 1.032 
1064 664 -6.254342 3.076890 1.807 
1080 664 -6.453663 3.148184 2.027 
1096 664 -6.779216 3.576114 2.716 
1112 664 -6.789277 3.783483 6.232 
1128 664 -7.251115 4.040069 5.405 
1144 664 -7.658023 4.208629 2.260 
1160 664 -7.570548 4.420451 3.273 
1176 664 -7.709864 4.316885 1.737 
1192 664 -6.732500 3.514823 1.182 
1208 664 -3.080718 3.448972 1.041 
1224 664 -3.672350 5.095850 1.086 
1240 664 -6.749719 8.755856 1.092 
1256 664 -6.225233 13.393069 1.227 
1272 664 -6.123621 13.881864 1.205 
8 648 -0.881040 -0.624783 1.059 
24 648 -3.483028 2.750347 1.087 
40 648 -6.085015 6.125477 1.707 
56 648 -4.211402 3.951318 1.136 
72 648 -8.486628 2.152026 1.221 
88 648 -11.961576 1.477269 1.141 
104 648 -12.429425 1.475492 1.534 
120 648 -11.676018 1.057502 2.405 
136 648 -11.282967 1.000930 2.493 
152 648 -10.937490 1.032557 1.889 
168 648 -10.678812 1.220338 1.529 
184 648 -11.117730 1.545461 2.214 
200 648 -11.605859 1.583395 1.859 
216 648 -11.457799 1.581836 1.158 
232 648 -11.505443 1.392439 1.853 
248 648 -11.866454 1.179801 2.613 
264 648 -11.953510 1.097771 1.496 
280 648 -12.448650 0.741609 1.117 
296 648 -12.538907 0.615473 3.099 
312 648 -12.232805 0.597891 1.053 
328 648 -12.185630 0.593600 1.079 
344 648 -11.833069 0.672724 2.489 
360 648 -11.348015 0.588153 3.779 
376 648 -10.983799 0.429544 2.334 
392 648 -10.793702 0.432893 2.136 
408 648 -10.872827 1.068948 2.415 
424 648 -11.288542 1.962829 3.288 
440 648 -11.376667 2.953719 1.725 
456 648 -10.881617 2.896209 1.843 
472 648 -10.485340 2.209837 2.247 
488 648 -10.668530 1.907194 2.603 
504 648 -10.608670 1.587050 3.014 
520 648 -10.177681 1.507185 2.131 
536 648 -9.777408 1.406908 1.368 
552 648 -9.632921 1.392504 1.340 
568 648 -9.309630 1.453111 2.126 
584 648 -8.286331 2.016077 2.434 
600 648 -7.890349 2.498436 2.507 
616 648 -8.098443 3.212317 1.758 
632 648 -8.159696 3.607579 2.830 
648 648 -7.994863 3.445619 2.136 
664 648 -8.623373 2.889695 1.452 
680 648 -9.251830 2.492517 2.295 
696 648 -9.588805 1.787067 2.700 
712 648 -9.285764 1.332947 3.183 
728 648 -9.087861 0.972309 2.779 
744 648 -9.210069 1.134192 1.971 
760 648 -8.954275 1.193274 1.794 
776 648 -8.939367 0.969345 4.165 
792 648 -8.681803 0.532440 1.855 
808 648 -8.888913 0.522665 1.320 
824 648 -8.831817 0.998189 1.422 
840 648 -8.622514 1.647471 2.106 
856 648 -8.371113 2.305370 2.717 
872 648 -8.473138 2.611795 3.447 
888 648 -8.393568 2.675863 3.658 
904 648 -8.131324 2.841831 3.019 
920 648 -7.659723 3.347442 1.114 
936 648 -7.149120 3.733164 1.234 
952 648 -7.092802 3.655196 1.693 
968 648 -6.686289 3.458610 2.467 
984 648 -6.286673 3.508105 1.556 
1000 648 -6.364158 3.879441 2.400 
1016 648 -6.319183 3.966047 5.195 
1032 648 -6.153078 3.876379 1.192 
1048 648 -6.075769 3.740124 1.455 
1064 648 -6.006201 3.434672 1.344 
1080 648 -6.110034 3.457173 2.494 
1096 648 -6.394612 3.499522 3.800 
1112 648 -6.406497 3.608008 6.320 
1128 648 -6.736148 3.668373 5.800 
1144 648 -7.471000 3.889109 1.260 
1160 648 -7.617474 4.175891 3.149 
1176 648 -7.542233 4.187432 2.526 
1192 648 -6.951587 4.150271 2.103 
1208 648 -5.927059 5.294599 1.009 
1224 648 -4.902530 6.438927 1.006 
1240 648 -8.828187 9.861145 1.277 
1256 648 -9.124067 12.149335 1.782 
1272 648 -9.095050 13.350052 1.250 
8 632 17.037471 5.826837 1.338 
24 632 11.292919 3.410121 1.389 
40 632 5.548367 0.993405 1.120 
56 632 0.065202 -2.133063 1.278 
72 632 -4.808443 -1.371952 1.179 
88 632 -9.366095 0.704141 1.876 
104 632 -11.072932 1.022482 1.929 
120 632 -11.197067 0.888367 3.335 
136 632 -11.265896 0.879777 2.203 
152 632 -10.863556 0.779499 2.673 
168 632 -10.331611 0.971728 2.364 
184 632 -10.720872 1.313292 2.297 
200 632 -11.056767 1.411356 1.949 
216 632 -11.666443 1.544223 1.811 
232 632 -11.955588 1.423201 1.249 
248 632 -12.606702 1.289685 1.678 
264 632 -12.463890 1.175008 3.300 
280 632 -12.713184 1.002532 2.713 
296 632 -12.504805 0.739044 2.473 
312 632 -12.502960 0.521269 3.349 
328 632 -12.402658 0.407224 2.134 
344 632 -11.958183 0.138300 2.483 
360 632 -11.308415 -0.064156 3.596 
376 632 -10.971105 0.035875 2.294 
392 632 -10.971704 0.357038 3.630 
408 632 -10.704950 0.542813 1.820 
424 632 -10.862073 1.501375 1.864 
440 632 -11.246307 1.907816 2.804 
456 632 -11.007719 1.705512 2.039 
472 632 -10.492037 1.592734 2.154 
488 632 -10.280214 2.167187 2.919 
504 632 -10.104662 2.072596 2.394 
520 632 -9.264083 2.326471 1.793 
536 632 -8.779262 2.129549 1.958 
552 632 -8.224747 2.242450 1.257 
568 632 -7.533731 2.463177 1.450 
584 632 -6.542070 2.847143 1.203 
600 632 -6.242224 3.137015 1.312 
616 632 -7.314207 3.395141 1.755 
632 632 -7.921555 3.357635 2.667 
648 632 -8.146669 3.173046 2.793 
664 632 -8.245673 3.152790 2.712 
680 632 -8.594114 3.025447 2.065 
696 632 -9.093640 2.541106 2.474 
712 632 -8.579810 2.048930 1.707 
728 632 -8.411227 1.494287 1.790 
744 632 -8.822753 1.069690 2.675 
760 632 -8.872623 1.250563 1.495 
776 632 -8.959734 1.108884 3.247 
792 632 -8.494605 0.771077 3.951 
808 632 -8.529974 0.835669 2.259 
824 632 -8.609897 1.384450 1.488 
840 632 -8.028231 2.373665 1.536 
856 632 -8.195355 2.767168 3.089 
872 632 -8.450078 2.678370 2.941 
888 632 -8.357885 2.767242 2.786 
904 632 -8.531154 3.020902 1.628 
920 632 -8.043216 3.476592 1.011 
936 632 -7.571212 3.740912 1.848 
952 632 -7.528118 3.763094 1.472 
968 632 -7.504235 3.674769 6.114 