TITLE = "B00001"
VARIABLES = "x", "y", "u", "v", "sn"
ZONE T="Frame 0", I=107, J=67
6 798 11.278252 2.156483 1.399 
18 798 10.049800 0.551933 1.066 
30 798 8.319539 0.586848 1.064 
42 798 6.589279 0.621762 1.172 
54 798 4.859018 0.656676 1.045 
66 798 3.128758 0.691590 1.080 
78 798 4.319440 -0.035438 1.025 
90 798 4.177921 -0.719669 1.197 
102 798 4.036401 -1.403901 1.159 
114 798 12.031731 0.947203 1.127 
126 798 9.896043 -7.251410 1.147 
138 798 7.760355 -15.450024 1.536 
150 798 0.593965 1.734151 1.060 
162 798 -5.891662 0.583601 2.230 
174 798 -6.049520 0.650254 2.321 
186 798 -6.207378 0.716908 3.328 
198 798 -5.760947 0.870701 2.135 
210 798 -5.584401 1.292166 2.314 
222 798 -5.709569 1.853224 2.984 
234 798 -6.057852 0.998092 1.605 
246 798 -6.261561 1.577773 1.414 
258 798 -6.465270 2.157453 1.287 
270 798 -6.560678 1.653647 2.002 
282 798 -6.359124 1.819943 1.179 
294 798 -6.169721 2.090850 8.080 
306 798 -6.116302 2.016103 3.673 
318 798 -5.757369 1.835823 2.081 
330 798 -5.185347 1.822931 1.308 
342 798 -5.181846 1.645675 1.208 
354 798 -5.178346 1.468419 2.145 
366 798 -5.174845 1.291163 2.093 
378 798 -4.951818 1.529782 1.110 
390 798 -4.869878 1.627437 1.613 
402 798 -5.062470 1.153572 3.237 
414 798 -5.167928 1.078219 20.000 
426 798 -5.273387 1.002865 9.983 
438 798 -5.378846 0.927512 1.142 
450 798 -5.448590 0.986221 1.101 
462 798 -5.348569 0.714055 2.458 
474 798 -5.136482 0.228938 2.584 
486 798 -4.704164 -0.193820 1.079 
498 798 -4.642253 -0.112693 2.265 
510 798 -4.577266 -0.235752 1.847 
522 798 -4.211201 -0.255787 4.135 
534 798 -3.933745 0.094927 2.562 
546 798 -4.103331 0.009096 1.398 
558 798 -3.866099 -0.129085 1.229 
570 798 -3.917970 -0.139037 2.149 
582 798 -3.969841 -0.148989 2.700 
594 798 -3.900400 -0.455877 2.668 
606 798 -3.598037 -0.227566 6.161 
618 798 -3.253018 -0.210688 2.311 
630 798 -3.005436 -0.493295 1.697 
642 798 -3.418714 -0.418903 1.071 
654 798 -3.901959 -0.422109 1.470 
666 798 -3.937609 -0.690750 1.563 
678 798 -3.980453 -1.190228 2.302 
690 798 -4.097367 -1.480112 2.595 
702 798 -3.963039 -1.494368 1.052 
714 798 -3.611311 -1.338470 1.290 
726 798 -3.406942 -1.226211 1.320 
738 798 -3.661784 -1.281545 2.018 
750 798 -3.916626 -1.336878 1.367 
762 798 -4.171468 -1.392212 1.062 
774 798 -4.426310 -1.447545 1.230 
786 798 -4.681152 -1.502879 1.036 
798 798 -4.935994 -1.558212 2.498 
810 798 -5.190836 -1.613546 4.112 
822 798 -5.445678 -1.668880 2.628 
834 798 -5.700520 -1.724213 2.672 
846 798 -6.516521 -1.628923 1.754 
858 798 -6.856962 -1.196086 1.016 
870 798 -6.987687 -0.639799 1.680 
882 798 -7.247710 -0.370666 4.916 
894 798 -7.808843 -0.401861 4.258 
906 798 -8.543925 -1.428533 1.554 
918 798 -8.669283 -2.046991 6.896 
930 798 -8.794642 -2.665450 1.567 
942 798 -4.508309 -2.655588 1.127 
954 798 -0.221976 -2.645726 1.467 
966 798 4.064357 -2.635864 2.153 
978 798 0.963256 -1.598241 1.121 
990 798 -2.137845 -0.560619 1.575 
1002 798 -5.238947 0.477004 1.630 
1014 798 -5.139400 -10.900690 1.726 
1026 798 -3.576467 -10.437796 1.950 
1038 798 -0.872860 -0.062225 1.632 
1050 798 4.657189 3.866853 1.630 
1062 798 2.294109 2.872164 2.079 
1074 798 -0.068971 1.877475 1.178 
1086 798 -5.052357 -1.002450 1.721 
1098 798 -5.871713 -1.882770 1.914 
1110 798 -5.957961 -4.519459 1.433 
1122 798 -6.044208 -7.156148 1.112 
1134 798 -9.420611 7.186671 1.267 
1146 798 -7.689044 4.638385 1.100 
1158 798 -5.503730 0.380913 1.401 
1170 798 -2.691623 0.466439 1.256 
1182 798 0.120484 0.551965 1.414 
1194 798 -0.704263 1.057121 1.060 
1206 798 -0.780041 0.680224 1.501 
1218 798 -0.855819 0.303327 1.272 
1230 798 -0.931597 -0.073570 1.167 
1242 798 -0.995418 -0.849078 1.169 
1254 798 -1.311207 -6.482077 1.087 
1266 798 -2.452139 -11.418161 1.043 
1278 798 0.000000 -0.000000 1.043 
6 786 8.128964 1.516780 1.300 
18 786 9.070347 1.705803 1.040 
30 786 3.406309 0.769114 1.089 
42 786 -2.257728 -0.167575 1.121 
54 786 2.017354 1.646147 1.320 
66 786 6.292437 3.459869 1.087 
78 786 1.199387 0.019187 1.106 
90 786 0.125178 -0.405012 1.019 
102 786 1.758902 -0.161444 1.276 
114 786 8.797890 2.623279 1.068 
126 786 7.201501 -2.521830 1.070 
138 786 5.605112 -7.666939 1.547 
150 786 0.558948 1.754763 1.133 
162 786 -5.385251 0.912344 3.185 
174 786 -5.741466 1.000862 2.684 
186 786 -6.097681 1.089380 3.780 
198 786 -5.751169 1.181076 2.090 
210 786 -5.572900 1.382948 2.188 
222 786 -5.660358 1.661715 3.141 
234 786 -5.983125 0.666519 1.607 
246 786 -6.257222 1.238861 1.421 
258 786 -6.103920 1.594787 1.295 
270 786 -6.361003 1.316137 2.036 
282 786 -6.454505 1.828374 1.113 
294 786 -6.083625 2.049984 7.592 
306 786 -6.017675 2.160312 3.715 
318 786 -5.698413 2.080529 2.069 
330 786 -5.211181 2.095229 1.403 
342 786 -5.225457 1.872001 1.268 
354 786 -5.239732 1.648774 2.099 
366 786 -5.255961 1.677925 2.472 
378 786 -5.055771 1.730416 1.000 
390 786 -5.004379 1.831819 1.570 
402 786 -5.170632 1.481114 3.519 
414 786 -5.080033 1.075196 56.811 
426 786 -4.892570 1.026228 8.432 
438 786 -5.263294 1.392644 1.267 
450 786 -5.322455 1.213402 1.053 
462 786 -5.123093 0.915254 3.093 
474 786 -4.926204 0.441384 2.560 
486 786 -4.642562 -0.004828 1.075 
498 786 -4.594601 0.026439 2.208 
510 786 -4.496434 -0.141238 1.956 
522 786 -4.145996 -0.233841 4.020 
534 786 -3.872477 0.047869 2.403 
546 786 -4.138028 0.048091 1.330 
558 786 -3.997601 -0.135703 1.133 
570 786 -3.793123 -0.015523 2.232 
582 786 -4.086315 -0.249058 2.764 
594 786 -3.961214 -0.575704 2.991 
606 786 -3.621314 -0.419920 6.476 
618 786 -3.182275 -0.399338 2.176 
630 786 -2.803169 -0.628688 1.577 
642 786 -3.147592 -0.518394 1.024 
654 786 -3.653040 -0.497499 1.583 
666 786 -3.766973 -0.721175 1.507 
678 786 -3.850759 -1.177402 2.266 
690 786 -4.020436 -1.448144 2.409 
702 786 -3.961369 -1.439446 1.080 
714 786 -3.736625 -1.271113 1.314 
726 786 -3.518443 -1.102826 1.387 
738 786 -3.500112 -1.184997 2.104 
750 786 -3.901356 -1.207831 1.498 
762 786 -5.222994 -1.096438 1.101 
774 786 -8.596026 -1.342280 1.201 
786 786 -6.599640 -1.260497 1.114 
798 786 -3.303120 -1.369423 2.451 
810 786 -3.149472 -1.627396 3.819 
822 786 -4.356980 -1.669915 2.723 
834 786 -5.564488 -1.712434 2.469 
846 786 -6.341182 -1.760798 1.977 
858 786 -6.586851 -1.037042 1.066 
870 786 -6.826632 -0.488270 1.586 
882 786 -7.200085 -0.296530 5.122 
894 786 -7.821396 -0.391649 3.847 
906 786 -8.458082 -1.282492 1.723 
918 786 -9.201239 -1.739160 8.317 
930 786 -9.306599 -1.624907 1.515 
942 786 -4.051869 -3.321044 1.130 
954 786 1.202861 -5.017181 1.393 
966 786 0.663648 -0.469091 2.038 
978 786 -2.322554 0.789020 1.076 
990 786 -4.143768 1.049557 1.510 
1002 786 -5.964983 1.310094 1.613 
1014 786 -5.419550 -5.854595 1.654 
1026 786 -4.638195 -6.279680 1.791 
1038 786 -2.428061 -0.360178 1.750 
1050 786 2.754471 2.896718 1.647 
1062 786 0.965293 2.266799 2.310 
1074 786 -0.823884 1.636880 1.141 
1086 786 -4.888255 -0.497100 1.778 
1098 786 -5.735761 -1.647155 1.893 
1110 786 -6.118972 -1.818838 1.375 
1122 786 -6.123224 -5.533332 1.168 
1134 786 -7.861216 4.171765 1.224 
1146 786 -8.082891 4.376781 1.075 
1158 786 -5.603681 0.500717 1.505 
1170 786 -2.861414 -0.149489 1.159 
1182 786 -0.239097 -2.676957 1.411 
1194 786 0.087306 -3.156627 1.070 
1206 786 -1.011060 -0.496152 1.462 
1218 786 -0.874959 -0.458494 1.306 
1230 786 -0.738858 -0.420836 1.161 
1242 786 -0.216277 -1.038823 1.163 
1254 786 0.287332 -7.009781 1.036 
1266 786 0.281202 -12.463572 1.029 
1278 786 -1.217535 -12.315215 1.029 
6 774 4.979676 0.877078 1.267 
18 774 5.502568 1.732449 1.268 
30 774 1.506393 0.816091 1.220 
42 774 3.323875 0.186810 1.233 
54 774 5.031455 4.312633 1.259 
66 774 1.667547 4.591795 1.119 
78 774 0.313759 1.667029 1.115 
90 774 -0.696359 -0.027202 1.583 
102 774 0.696080 0.271604 1.549 
114 774 5.205099 1.760177 1.058 
126 774 5.296612 0.968526 1.104 
138 774 4.098386 -0.179105 1.011 
150 774 0.523932 1.775374 1.126 
162 774 -4.829831 1.591206 17.818 
174 774 -5.987818 0.995074 18.427 
186 774 -5.578979 1.561575 471.327 
198 774 -5.668308 1.528278 2.723 
210 774 -5.642412 1.522230 3.823 
222 774 -5.571475 1.478582 2.791 
234 774 -5.789348 0.746293 2.012 
246 774 -5.968035 0.429798 1.885 
258 774 -5.780165 0.622632 1.662 
270 774 -5.649650 1.110828 2.207 
282 774 -5.819394 1.550060 2.513 
294 774 -5.807447 2.103276 7.867 
306 774 -5.834795 2.215199 2.014 
318 774 -5.685781 2.312010 1.637 
330 774 -5.172620 2.265599 1.156 
342 774 -4.765028 2.092106 1.423 
354 774 -5.137685 1.903258 1.416 
366 774 -5.103434 1.892453 2.199 
378 774 -4.958042 1.885433 1.941 
390 774 -5.209115 1.807584 2.386 
402 774 -5.534932 1.385293 1.114 
414 774 -5.311332 1.349607 1.028 
426 774 -5.004953 1.499282 1.910 
438 774 -4.970276 1.483078 3.294 
450 774 -4.814167 1.301830 2.485 
462 774 -4.669329 1.044269 2.051 
474 774 -4.604867 0.465626 2.725 
486 774 -4.510090 0.089571 2.925 
498 774 -4.555286 0.128719 1.620 
510 774 -4.369643 -0.060365 3.387 
522 774 -4.002260 -0.338020 3.162 
534 774 -3.909075 -0.306364 2.831 
546 774 -4.392446 -0.032470 1.161 
558 774 -4.317486 -0.174364 1.093 
570 774 -4.416864 -0.169228 3.261 
582 774 -4.471638 -0.597252 3.969 
594 774 -4.222938 -0.956858 17.136 
606 774 -3.822090 -0.939727 20.000 
618 774 -3.053843 -0.766540 3.693 
630 774 -2.726502 -0.810727 1.161 
642 774 -2.876830 -0.809306 1.358 
654 774 -3.201861 -0.867733 1.714 
666 774 -3.486606 -0.937525 1.543 
678 774 -3.714389 -1.180266 2.498 
690 774 -3.973543 -1.421678 3.993 
702 774 -4.109837 -1.538339 1.568 
714 774 -4.016301 -1.491988 2.754 
726 774 -3.602120 -1.036801 2.780 
738 774 -3.572081 -0.694727 2.181 
750 774 -3.475301 -0.423239 1.866 
762 774 -4.333620 -0.098841 2.258 
774 774 -4.846473 -0.196659 2.492 
786 774 -3.941223 -0.411529 2.371 
798 774 -3.014795 -1.121324 1.948 
810 774 -3.312009 -1.719175 2.539 
822 774 -4.158163 -1.774547 1.886 
834 774 -5.254849 -1.929512 1.955 
846 774 -6.074414 -1.898993 4.042 
858 774 -6.485422 -1.057454 1.686 
870 774 -6.653043 -0.711234 1.787 
882 774 -7.161281 -0.373164 4.458 
894 774 -7.830347 -0.613614 2.187 
906 774 -8.182495 -1.368362 2.332 
918 774 -8.701538 -1.668952 2.471 
930 774 -8.976666 -1.516711 2.105 
942 774 -5.381153 -2.620169 1.927 
954 774 -3.519882 -3.298035 3.283 
966 774 -3.655764 -0.267189 2.605 
978 774 -6.945491 2.039600 1.898 
990 774 -6.495281 2.057462 1.058 
1002 774 -6.045072 2.075325 1.052 
1014 774 -5.414250 -0.873321 4.598 
1026 774 -5.699923 -2.121563 1.879 
1038 774 -4.127068 -0.771617 1.436 
1050 774 -0.304311 1.351856 2.513 
1062 774 -0.048232 2.245202 5.009 
1074 774 -3.354640 0.478343 1.510 
1086 774 -6.118204 -1.209547 1.291 
1098 774 -6.468198 -1.989031 1.232 
1110 774 -6.477015 -2.672016 1.302 
1122 774 -6.202240 -3.910516 1.161 
1134 774 -6.301821 1.156859 1.040 
1146 774 -6.610379 -0.478718 1.264 
1158 774 -5.568494 -4.154834 1.007 
1170 774 -3.561304 -7.938856 1.255 
1182 774 -0.659353 -10.831723 1.071 
1194 774 -0.318160 -10.453495 1.470 
1206 774 -0.696581 -6.184625 1.061 
1218 774 -0.230055 -1.304277 1.398 
1230 774 -0.001281 -0.144264 1.244 
1242 774 0.007560 0.352557 1.143 
1254 774 0.286743 -4.452001 1.234 
1266 774 -0.102736 0.124279 1.321 
1278 774 -0.628509 -0.454646 1.321 
6 762 1.830388 0.237375 1.587 
18 762 2.058333 0.799291 1.698 
30 762 4.831571 0.009273 1.177 
42 762 8.557383 -0.273528 1.369 
54 762 9.189024 1.879026 2.200 
66 762 1.594440 1.392703 1.717 
78 762 -0.571869 3.314870 1.603 
90 762 -0.555804 3.397402 1.134 
102 762 0.496999 0.683996 1.287 
114 762 1.612308 0.897075 1.195 
126 762 2.993560 0.461403 1.032 
138 762 3.056398 0.185438 1.031 
150 762 1.184461 -0.314966 1.091 
162 762 -4.702012 1.405732 8.598 
174 762 -5.484478 1.480085 2.935 
186 762 -5.381645 1.293550 2.198 
198 762 -5.573688 1.410312 2.122 
210 762 -5.555097 1.354003 7.855 
222 762 -5.266389 1.274148 1.995 
234 762 -5.317895 0.892533 1.272 
246 762 -5.565841 0.137145 2.062 
258 762 -5.212907 0.344964 1.007 
270 762 -5.055393 0.608933 2.363 
282 762 -5.168970 1.155714 3.437 
294 762 -5.661098 1.578660 4.171 
306 762 -5.771806 1.980160 5.146 
318 762 -5.804629 2.211544 2.425 
330 762 -5.284983 2.341792 7.024 
342 762 -5.035679 2.028341 3.035 
354 762 -5.033979 1.984200 1.160 
366 762 -4.880949 1.896946 1.790 
378 762 -4.881233 1.708923 1.565 
390 762 -5.142376 1.715573 1.991 
402 762 -5.606631 1.818296 1.035 
414 762 -5.159416 1.221191 1.566 
426 762 -4.935256 1.229353 1.674 
438 762 -4.851697 1.110556 2.011 
450 762 -4.629164 0.904060 3.097 
462 762 -4.455986 0.719726 3.183 
474 762 -4.658827 0.366360 3.436 
486 762 -4.848769 -0.023743 2.774 
498 762 -4.525420 -0.041806 3.755 
510 762 -4.205033 -0.140616 3.164 
522 762 -3.946253 -0.493199 1.744 
534 762 -3.999345 -0.453941 2.662 
546 762 -4.702424 -0.178726 1.716 
558 762 -4.673022 -0.293015 1.587 
570 762 -4.635358 -0.432206 6.385 
582 762 -4.598290 -0.868277 5.562 
594 762 -4.383737 -1.253032 2.050 
606 762 -4.118385 -1.295626 3.586 
618 762 -3.544502 -1.192607 3.171 
630 762 -2.834033 -1.040117 1.305 
642 762 -2.773457 -1.029548 1.470 
654 762 -2.923278 -1.115387 2.090 
666 762 -3.235756 -1.243423 1.887 
678 762 -3.499987 -1.435194 4.178 
690 762 -3.651982 -1.553456 2.225 
702 762 -4.060408 -1.455600 2.911 
714 762 -3.770352 -1.273181 1.300 
726 762 -3.369798 -0.961328 1.085 
738 762 -2.567820 -0.644763 1.491 
750 762 -2.483635 -0.326030 1.404 
762 762 -2.824673 0.064281 3.967 
774 762 -4.109631 -0.207357 2.649 
786 762 -3.556942 -0.092801 6.759 
798 762 -3.576377 -0.976465 4.915 
810 762 -3.756019 -1.871321 2.221 
822 762 -4.750643 -2.317687 2.875 
834 762 -5.363061 -2.256303 2.763 
846 762 -5.994434 -2.086357 3.412 
858 762 -6.172567 -1.157406 2.057 
870 762 -6.137595 -0.629841 1.799 
882 762 -6.768768 -0.844116 1.534 
894 762 -7.775771 -0.913758 2.232 
906 762 -8.123316 -1.372373 3.449 
918 762 -7.970667 -1.776534 1.714 
930 762 -8.353374 -1.596503 1.591 
942 762 -8.369652 -1.326615 4.692 
954 762 -8.242625 -1.578890 3.498 
966 762 -7.975177 -0.065288 4.406 
978 762 -7.836224 1.115429 3.367 
990 762 -7.201671 1.784145 1.215 
1002 762 -6.417491 1.315199 1.157 
1014 762 -5.875520 -0.316492 3.274 
1026 762 -6.492159 -1.804086 1.975 
1038 762 -5.588521 -1.493921 2.419 
1050 762 -5.737303 -2.035652 1.523 
1062 762 -5.377183 -1.914997 1.875 
1074 762 -6.136085 -1.673116 1.004 
1086 762 -6.565438 -1.446413 2.041 
1098 762 -6.806026 -1.942246 9.430 
1110 762 -7.064521 -2.250734 4.730 
1122 762 -6.281256 -2.287700 3.830 
1134 762 -4.742427 -1.858047 1.223 
1146 762 -5.137867 -5.334216 1.145 
1158 762 -5.533307 -8.810386 1.060 
1170 762 -3.521179 -15.685744 1.044 
1182 762 -1.500079 -17.264121 1.267 
1194 762 -0.723626 -17.750364 1.149 
1206 762 -0.382101 -11.873097 1.088 
1218 762 0.322174 -3.272415 1.130 
1230 762 0.223257 0.358915 1.267 
1242 762 0.231397 1.743937 1.405 
1254 762 0.513737 0.088506 1.224 
1266 762 0.639480 1.152350 1.119 
1278 762 0.661962 0.480073 1.119 
6 750 3.210490 -1.754472 1.911 
18 750 5.335454 -0.245123 2.000 
30 750 10.097851 0.192511 1.041 
42 750 10.441430 1.054916 2.267 
54 750 9.720407 2.116299 1.556 
66 750 4.396355 5.779552 1.115 
78 750 0.381989 8.472985 1.365 
90 750 -0.189638 5.981002 2.025 
102 750 0.440750 2.762136 1.023 
114 750 0.236947 0.840953 1.138 
126 750 -0.286887 0.377910 1.423 
138 750 0.117978 0.891891 1.073 
150 750 -1.861309 0.701436 1.125 
162 750 -5.275500 0.897736 1.110 
174 750 -5.570151 0.863895 2.501 
186 750 -5.438368 1.046572 2.312 
198 750 -5.742174 0.779551 2.270 
210 750 -5.697815 0.882272 3.185 
222 750 -5.144893 1.087262 2.753 
234 750 -4.970767 0.823529 1.393 
246 750 -4.846847 0.357069 2.145 
258 750 -4.794543 0.078898 1.777 
270 750 -5.110836 0.251678 1.810 
282 750 -5.338372 0.688451 2.509 
294 750 -5.670100 1.292896 5.669 
306 750 -5.749907 1.762171 2.069 
318 750 -5.666733 2.226954 1.686 
330 750 -5.305879 2.175513 2.297 
342 750 -5.021310 1.783637 1.048 
354 750 -4.762384 1.707246 1.708 
366 750 -4.543604 1.800306 2.072 
378 750 -4.708085 1.801085 1.964 
390 750 -5.075636 1.623562 1.280 
402 750 -5.508745 1.996297 1.260 
414 750 -4.910433 0.789810 3.025 
426 750 -4.999019 0.540093 1.947 
438 750 -4.900108 0.340860 2.382 
450 750 -4.667623 0.214443 2.582 
462 750 -4.563368 0.442471 1.387 
474 750 -4.880796 0.529523 1.173 
486 750 -4.902176 -0.150237 2.733 
498 750 -4.562309 -0.321129 1.440 
510 750 -4.332395 -0.327556 1.663 
522 750 -4.377688 -0.468159 1.430 
534 750 -4.298103 -0.452097 1.067 
546 750 -4.472270 -0.365063 1.632 
558 750 -4.847725 -0.470216 1.658 
570 750 -4.733933 -0.711806 5.401 
582 750 -4.784162 -1.244748 2.011 
594 750 -4.733131 -1.549190 1.565 
606 750 -4.482004 -1.647993 6.233 
618 750 -3.859297 -1.410383 2.073 
630 750 -3.368767 -1.117746 1.167 
642 750 -3.390452 -1.304546 1.307 
654 750 -3.268731 -1.271175 2.858 
666 750 -3.282097 -1.308174 1.395 
678 750 -3.369240 -1.395583 2.591 
690 750 -3.315125 -1.430059 1.430 
702 750 -3.752221 -1.225561 2.092 
714 750 -3.547549 -1.045073 2.927 
726 750 -3.135654 -0.973503 2.115 
738 750 -2.797762 -0.904590 5.515 
750 750 -2.787217 -0.703530 6.284 
762 750 -3.031543 -0.380400 1.522 
774 750 -3.372789 -0.218055 5.050 
786 750 -3.868246 -0.248160 1.979 
798 750 -4.560909 -0.902665 1.141 
810 750 -4.570141 -2.055603 1.464 
822 750 -5.030022 -2.610196 1.995 
834 750 -5.687994 -2.701034 2.184 
846 750 -6.331261 -2.496820 2.229 
858 750 -5.935286 -1.343578 2.580 
870 750 -5.725708 -0.551813 5.078 
882 750 -6.664112 -0.872369 1.109 
894 750 -7.484988 -1.171464 1.757 
906 750 -7.827542 -1.424389 1.711 
918 750 -7.692566 -1.747520 1.314 
930 750 -7.998496 -2.422668 1.054 
942 750 -8.382135 -2.874056 5.847 
954 750 -8.441914 -2.734061 4.273 
966 750 -8.739458 -1.019956 2.164 
978 750 -7.812595 -0.184467 2.083 
990 750 -7.368248 0.144970 1.733 
1002 750 -6.844548 -0.271183 1.599 
1014 750 -6.489864 -0.990123 1.019 
1026 750 -6.964741 -1.757948 1.441 
1038 750 -6.676515 -2.639182 1.172 
1050 750 -6.824126 -3.045996 4.079 
1062 750 -6.836126 -2.992389 2.042 
1074 750 -6.556841 -1.725739 1.235 
1086 750 -6.523182 -2.207382 1.633 
1098 750 -7.143853 -1.895461 2.961 
1110 750 -6.988889 -2.323098 1.618 
1122 750 -7.134201 -2.021975 2.316 
1134 750 -6.036142 -2.343674 1.401 
1146 750 -5.972867 -3.416495 1.423 
1158 750 -5.573381 -11.771124 1.040 
1170 750 -4.665174 -14.720370 1.644 
1182 750 -2.465332 -16.764895 1.055 
1194 750 -1.535733 -18.581910 1.102 
1206 750 -1.417339 -13.198961 1.067 
1218 750 -0.525281 -4.668044 1.538 
1230 750 0.003114 0.408144 1.321 
1242 750 0.185322 2.521898 1.023 
1254 750 0.320428 2.733690 1.411 
1266 750 0.500385 -2.356059 1.096 
1278 750 0.869084 -2.291859 1.096 
6 738 9.155943 -5.545724 1.129 
18 738 17.539932 -3.156059 1.233 
30 738 13.821452 0.729652 1.509 
42 738 11.980893 2.852597 1.250 
54 738 7.407546 4.242677 1.173 
66 738 3.374986 6.328558 1.166 
78 738 0.357714 9.355297 1.125 
90 738 0.176528 8.564603 1.557 
102 738 0.892336 1.714593 1.079 
114 738 -0.604244 1.253653 1.049 
126 738 -1.410474 0.159871 1.064 
138 738 -3.201829 1.330699 2.153 
150 738 -4.907079 1.717837 1.645 
162 738 -5.993299 1.292639 1.079 
174 738 -5.851120 0.710632 1.075 
186 738 -5.559733 0.982078 1.750 
198 738 -6.100900 0.751106 2.273 
210 738 -5.943738 0.813210 2.419 
222 738 -5.190205 1.063257 1.867 
234 738 -4.686665 0.774909 1.444 
246 738 -4.650167 0.110655 1.997 
258 738 -4.690397 -0.423475 1.744 
270 738 -5.166278 -0.105577 1.468 
282 738 -5.692229 0.458994 1.290 
294 738 -5.719891 1.272188 2.519 
306 738 -5.415947 1.754565 2.204 
318 738 -5.582039 2.308807 1.642 
330 738 -5.379602 2.113982 1.757 
342 738 -5.073908 1.682155 2.881 
354 738 -4.500181 1.723071 6.626 
366 738 -4.755957 1.840358 2.606 
378 738 -4.445027 1.855044 1.395 
390 738 -5.134552 1.099179 1.491 
402 738 -5.084936 1.307189 2.638 
414 738 -4.981817 0.574259 2.911 
426 738 -4.857782 -0.095718 2.406 
438 738 -5.037685 -0.209766 3.135 
450 738 -4.941193 -0.056504 2.711 
462 738 -5.310550 0.327660 7.783 
474 738 -5.372988 0.256303 1.777 
486 738 -4.802004 -0.372695 2.790 
498 738 -4.778947 -0.654122 1.357 
510 738 -4.893300 -0.384327 1.163 
522 738 -4.696779 -0.195783 1.778 
534 738 -4.500259 -0.007239 2.289 
546 738 -4.804967 0.036520 2.770 
558 738 -4.838559 -0.445540 2.509 
570 738 -4.610710 -0.742308 2.737 
582 738 -4.691893 -1.322236 2.873 
594 738 -4.604703 -1.726496 1.913 
606 738 -4.396153 -1.909697 3.292 
618 738 -4.087621 -1.701099 1.892 
630 738 -3.836843 -1.414028 1.925 
642 738 -3.820443 -1.174142 1.731 
654 738 -3.903188 -1.180168 2.705 
666 738 -3.704483 -1.327665 2.584 
678 738 -3.321292 -1.291040 3.444 
690 738 -3.454563 -1.291211 1.649 
702 738 -3.586130 -1.128196 2.900 
714 738 -3.502771 -1.108967 2.213 
726 738 -3.321308 -1.180878 1.744 
738 738 -3.281410 -1.261248 2.599 
750 738 -3.263994 -1.221438 2.299 
762 738 -3.492820 -0.914206 2.319 
774 738 -3.837864 -0.650967 4.685 
786 738 -4.428747 -0.488599 2.520 
798 738 -5.424736 -1.202863 2.104 
810 738 -5.505712 -1.746512 1.983 
822 738 -5.279128 -2.521475 2.525 
834 738 -5.743531 -2.783415 2.960 
846 738 -6.008265 -2.686722 2.405 
858 738 -6.112332 -1.628031 3.058 
870 738 -5.883876 -0.648588 3.381 
882 738 -6.607784 -0.918035 1.356 
894 738 -7.186630 -1.169680 1.610 
906 738 -7.210477 -1.766006 1.032 
918 738 -7.142676 -2.248787 1.243 
930 738 -7.995134 -2.096241 1.117 
942 738 -8.982575 -2.303764 3.324 
954 738 -9.222100 -2.188891 1.835 
966 738 -9.156195 -1.256443 2.126 
978 738 -8.304462 -0.632453 1.222 
990 738 -8.075452 -0.440656 1.725 
1002 738 -7.436657 -0.805282 1.772 
1014 738 -6.937630 -1.676279 1.487 
1026 738 -7.033370 -2.207877 1.544 
1038 738 -6.751326 -2.732630 1.023 
1050 738 -6.343947 -3.072146 2.830 
1062 738 -6.619568 -2.635684 2.893 
1074 738 -5.673276 -2.805573 1.094 
1086 738 -6.068776 -2.869982 2.283 
1098 738 -6.482305 -2.353789 2.358 
1110 738 -6.913257 -2.395461 2.152 
1122 738 -7.311846 -2.453162 2.160 
1134 738 -7.018752 -2.731946 2.150 
1146 738 -6.851327 -3.645687 1.292 
1158 738 -6.457057 -7.704175 1.095 
1170 738 -5.809169 -13.754995 1.123 
1182 738 -3.430585 -16.265670 1.300 
1194 738 -1.973431 -17.123542 1.286 
1206 738 -2.009729 -10.912072 1.417 
1218 738 -1.719736 -4.436260 1.077 
1230 738 -1.140204 -0.309732 1.442 
1242 738 -0.097818 1.862659 1.069 
1254 738 0.170551 -0.138359 1.073 
1266 738 0.361290 -5.864468 1.423 
1278 738 1.076206 -5.063791 1.423 
6 726 15.101396 -9.336976 1.682 
18 726 26.936614 -3.446959 1.592 
30 726 18.415347 2.337921 1.128 
42 726 9.948727 6.514720 1.043 
54 726 5.094685 6.369055 1.010 
66 726 1.897059 6.000165 1.226 
78 726 0.499608 4.929247 1.114 
90 726 0.862909 1.967576 1.028 
102 726 1.343921 0.667050 1.351 
114 726 0.054420 -0.734318 1.503 
126 726 -2.534061 -0.058168 1.069 
138 726 -5.266290 1.505376 3.413 
150 726 -7.036275 1.920814 1.749 
162 726 -7.391220 1.761891 1.169 
174 726 -6.507240 1.157265 1.147 
186 726 -5.968168 1.299969 1.697 
198 726 -6.323287 1.065163 2.079 
210 726 -5.495270 1.085147 1.110 
222 726 -5.321828 1.006176 1.049 
234 726 -4.851381 0.906582 1.267 
246 726 -4.663349 0.247026 1.032 
258 726 -4.632190 -0.397757 1.338 
270 726 -5.192806 -0.213206 1.220 
282 726 -5.735886 0.329052 1.006 
294 726 -6.020465 1.007054 1.785 
306 726 -5.460652 1.633795 1.612 
318 726 -5.420157 2.304859 1.644 
330 726 -5.548326 2.522507 1.568 
342 726 -5.495466 2.119363 2.517 
354 726 -5.309504 1.896741 2.235 
366 726 -5.363267 1.900599 1.400 
378 726 -5.507749 1.309582 2.452 
390 726 -5.193468 0.574795 1.082 
402 726 -5.055987 0.655727 1.713 
414 726 -5.053201 0.358708 3.253 
426 726 -5.116986 -0.186615 2.887 
438 726 -4.946703 -0.356866 2.268 
450 726 -4.946379 -0.389134 2.744 
462 726 -5.599155 0.091444 6.230 
474 726 -5.703355 -0.020701 3.111 
486 726 -4.857231 -0.812034 1.856 
498 726 -4.655074 -0.981788 1.924 
510 726 -5.318614 0.369172 1.751 
522 726 -4.790844 0.490096 1.202 
534 726 -4.263074 0.611020 1.521 
546 726 -4.180131 0.333187 2.731 
558 726 -4.623012 0.043736 2.126 
570 726 -4.390531 -0.627273 2.728 
582 726 -4.331504 -1.144945 3.327 
594 726 -4.389914 -1.325833 1.567 
606 726 -4.348178 -1.503622 3.335 
618 726 -4.203881 -1.522999 2.038 
630 726 -4.201209 -1.069422 1.723 
642 726 -4.100580 -0.755691 3.298 
654 726 -3.685708 -0.862449 2.660 
666 726 -3.604793 -1.103099 1.671 
678 726 -3.585010 -1.697432 5.147 
690 726 -3.640408 -1.870353 3.974 
702 726 -3.454579 -1.595178 1.673 
714 726 -3.361231 -1.352283 2.862 
726 726 -3.706654 -1.516739 1.481 
738 726 -3.495272 -1.718102 2.799 
750 726 -3.491157 -1.702862 1.801 
762 726 -4.031995 -1.679780 2.272 
774 726 -4.084385 -1.052240 5.362 
786 726 -4.979775 -1.050944 2.188 
798 726 -5.904817 -1.436416 3.635 
810 726 -5.961794 -1.533665 2.887 
822 726 -5.417579 -1.737699 1.482 
834 726 -4.800720 -2.332342 5.438 
846 726 -4.821476 -2.311192 14.226 
858 726 -5.249996 -1.654007 5.657 
870 726 -6.332735 -0.860440 1.536 
882 726 -6.965587 -0.807878 1.116 
894 726 -7.249085 -1.518425 1.534 
906 726 -7.156157 -2.211037 1.045 
918 726 -6.996751 -2.699922 1.206 
930 726 -7.551150 -2.482344 2.902 
942 726 -8.149428 -2.591072 5.912 
954 726 -9.063783 -1.752952 7.603 
966 726 -9.089815 -1.135965 1.789 
978 726 -8.491810 -0.667388 1.602 
990 726 -8.064622 -0.420700 2.616 
1002 726 -7.490745 -0.874727 3.011 
1014 726 -7.216038 -1.983136 2.764 
1026 726 -7.284009 -2.485731 1.182 
1038 726 -6.743567 -2.890168 1.067 
1050 726 -6.152009 -3.244179 2.307 
1062 726 -6.329072 -2.785157 2.253 
1074 726 -5.717361 -2.923440 1.765 
1086 726 -6.168870 -2.961230 2.793 
1098 726 -6.008542 -2.765002 1.969 
1110 726 -6.344378 -2.434984 3.495 
1122 726 -6.725313 -2.924445 1.672 
1134 726 -6.802265 -3.142766 2.691 
1146 726 -6.934682 -3.257713 1.526 
1158 726 -7.340732 -3.637225 1.437 
1170 726 -6.836813 -5.894161 1.068 
1182 726 -2.010530 -9.229249 1.007 
1194 726 -2.287760 -11.604542 1.173 
1206 726 -2.165859 -7.504944 1.095 
1218 726 -2.592480 -4.689970 1.443 
1230 726 -2.346890 -1.097444 1.009 
1242 726 -1.175542 0.707115 1.250 
1254 726 0.020675 -3.010407 1.148 
1266 726 0.926783 -6.730523 1.231 
1278 726 1.283329 -7.835723 1.231 
6 714 21.046850 -13.128228 1.265 
18 714 23.434380 6.635455 1.312 
30 714 13.513673 9.518574 1.082 
42 714 6.479376 12.682416 1.274 
54 714 2.892378 8.913590 1.089 
66 714 1.191790 6.024723 1.436 
78 714 0.641501 0.503197 1.728 
90 714 0.872650 -1.178688 1.129 
102 714 2.346228 -5.626818 1.212 
114 714 1.878635 -8.024493 1.634 
126 714 -1.092464 -4.460459 1.007 
138 714 -5.222085 1.807671 1.062 
150 714 -7.564457 1.850524 1.724 
162 714 -7.273892 1.599257 5.234 
174 714 -6.451052 1.620672 3.655 
186 714 -6.229167 1.528452 2.195 
198 714 -6.288227 1.401414 1.361 
210 714 -6.222762 1.281811 1.139 
222 714 -5.633555 1.092048 14.167 
234 714 -5.555602 0.730022 2.419 
246 714 -5.069782 0.373502 1.014 
258 714 -4.761992 -0.052887 1.102 
270 714 -5.065438 0.168580 1.016 
282 714 -5.393136 0.665511 2.364 
294 714 -5.734580 1.042009 1.468 
306 714 -5.144770 1.452458 1.444 
318 714 -5.028082 2.181575 2.015 
330 714 -5.808143 2.422739 2.182 
342 714 -5.751105 2.336384 4.513 
354 714 -5.809964 1.955815 1.955 
366 714 -6.111667 1.731074 1.829 
378 714 -6.568019 1.459873 1.346 
390 714 -6.452991 0.979178 1.022 
402 714 -6.163422 0.481054 1.597 
414 714 -5.751957 0.425542 1.462 
426 714 -5.393421 -0.002132 2.453 
438 714 -4.958360 -0.454114 2.814 
450 714 -4.844692 -0.546508 2.155 
462 714 -5.274054 -0.132392 2.404 
474 714 -5.267860 -0.063290 1.184 
486 714 -4.780501 -0.478591 3.102 
498 714 -4.665007 -0.680243 2.743 
510 714 -5.228640 0.620163 1.507 
522 714 -4.425657 0.453033 1.606 
534 714 -3.622675 0.285903 3.643 
546 714 -3.614894 0.382692 2.669 
558 714 -4.041864 0.335825 1.831 
570 714 -4.077214 -0.379087 3.535 
582 714 -4.198895 -0.839114 4.876 
594 714 -4.463805 -0.899772 2.546 
606 714 -4.521328 -0.759018 2.646 
618 714 -4.409287 -0.531206 2.043 
630 714 -4.355393 -0.371601 1.593 
642 714 -3.953479 -0.486727 1.826 
654 714 -3.468228 -0.544730 1.620 
666 714 -3.698442 -1.167987 3.480 
678 714 -3.793457 -1.956058 5.741 
690 714 -3.599366 -2.306445 2.982 
702 714 -3.527580 -2.021145 4.372 
714 714 -3.666924 -1.606820 2.714 
726 714 -3.877677 -1.769462 1.338 
738 714 -3.686068 -2.025856 1.495 
750 714 -3.641725 -1.993718 2.061 
762 714 -3.989094 -1.943610 1.271 
774 714 -4.285579 -2.064757 1.336 
786 714 -5.050962 -1.731128 5.236 
798 714 -6.079217 -1.519986 7.809 
810 714 -6.192312 -1.203962 5.198 
822 714 -5.686045 -1.527996 2.255 
834 714 -4.885619 -2.040179 4.385 
846 714 -4.796303 -2.083514 7.673 
858 714 -5.765959 -1.624881 3.901 
870 714 -6.432357 -1.116286 2.325 
882 714 -6.731051 -0.801908 1.857 
894 714 -7.448500 -1.700931 2.692 
906 714 -7.066259 -2.553678 2.411 
918 714 -7.066268 -2.820087 1.892 
930 714 -6.756650 -2.358333 2.877 
942 714 -6.938858 -2.055444 4.040 
954 714 -7.431660 -1.260561 3.375 
966 714 -6.656886 -0.099348 2.789 
978 714 -7.164739 -0.019310 1.466 
990 714 -7.739735 -0.099012 2.207 
1002 714 -7.538717 -0.949546 1.737 
1014 714 -7.516422 -2.206176 1.411 
1026 714 -7.486786 -2.649047 1.376 
1038 714 -6.909760 -2.699863 1.974 
1050 714 -6.397538 -3.005764 2.670 
1062 714 -6.038577 -2.934630 3.651 
1074 714 -6.444993 -2.730065 2.385 
1086 714 -6.268964 -3.052477 2.056 
1098 714 -6.171097 -2.702154 3.457 
1110 714 -6.534050 -2.434300 1.724 
1122 714 -6.644282 -2.750308 2.706 
1134 714 -6.499759 -2.938446 2.155 
1146 714 -6.382856 -2.949607 1.240 
1158 714 -7.159748 -3.366622 1.773 
1170 714 -7.160008 -4.606799 1.678 
1182 714 -3.620979 -6.909715 1.007 
1194 714 -2.602090 -6.085543 1.006 
1206 714 -4.627977 -3.335618 2.761 
1218 714 -4.329057 -2.945649 1.769 
1230 714 -4.697121 -2.830132 1.005 
1242 714 -2.342538 1.092034 1.612 
1254 714 -0.019257 0.450498 1.282 
1266 714 2.058691 -5.836154 1.074 
1278 714 -0.917122 -5.924377 1.074 
6 702 21.925535 8.392138 1.498 
18 702 17.308017 15.458403 1.263 
30 702 6.602254 15.318172 1.280 
42 702 3.393506 13.343439 1.213 
54 702 0.690070 11.458126 1.034 
66 702 -2.495144 6.927172 1.020 
78 702 -1.931975 2.626059 1.230 