TITLE = "B00099"
VARIABLES = "x", "y", "u", "v", "sn"
ZONE T="Frame 0", I=80, J=50
8 792 0.000000 -0.000000 1.134 
24 792 0.000000 -0.000000 1.134 
40 792 1.333536 -11.055971 1.604 
56 792 0.011996 -13.115369 1.055 
72 792 -0.323644 -14.414841 1.423 
88 792 -0.659283 -15.714312 1.011 
104 792 -0.994923 -17.013784 1.057 
120 792 -1.330563 -18.313256 1.192 
136 792 -2.163272 -14.350670 1.514 
152 792 -3.735893 -10.074610 1.702 
168 792 -2.228476 -4.431162 1.024 
184 792 -0.721059 1.212286 1.118 
200 792 -2.981410 2.003384 1.063 
216 792 -4.273683 1.205947 1.165 
232 792 -5.565957 0.408511 1.601 
248 792 -6.112478 0.403373 2.805 
264 792 -6.125118 0.996723 5.279 
280 792 -5.972639 1.761946 2.335 
296 792 -6.017504 2.064639 3.734 
312 792 -6.476457 1.987888 3.128 
328 792 -6.848604 1.822380 2.021 
344 792 -7.220751 1.656872 2.055 
360 792 -7.592898 1.491365 1.478 
376 792 -8.567438 1.165186 3.186 
392 792 -8.737474 0.970993 2.795 
408 792 -8.907510 0.776800 2.008 
424 792 -8.424061 0.398708 3.209 
440 792 -8.289028 0.265584 2.553 
456 792 -8.392115 0.453487 3.319 
472 792 -8.162340 0.669670 3.256 
488 792 -7.447014 1.063136 2.428 
504 792 -6.294266 1.578479 3.100 
520 792 -5.345844 2.091753 2.078 
536 792 -5.083717 2.207103 1.338 
552 792 -4.727610 2.419170 1.229 
568 792 -4.691364 2.357059 1.430 
584 792 -5.050335 1.896479 2.641 
600 792 -5.688765 1.085198 2.448 
616 792 -5.900175 1.425186 2.759 
632 792 -5.634556 1.499591 1.417 
648 792 -5.242463 1.412687 1.687 
664 792 -5.246429 1.633511 2.449 
680 792 -5.305496 1.725134 4.674 
696 792 -5.524101 1.755823 2.086 
712 792 -5.983123 1.794725 2.601 
728 792 -6.182574 1.821195 2.873 
744 792 -6.468904 1.353484 1.849 
760 792 -7.078184 0.679052 3.369 
776 792 -6.982368 0.538105 1.924 
792 792 -6.452981 1.065144 2.499 
808 792 -6.629090 1.081186 3.576 
824 792 -6.805199 1.097228 1.698 
840 792 -7.123781 0.589404 1.621 
856 792 -7.539951 0.408243 2.149 
872 792 -7.898577 0.329558 2.645 
888 792 -7.815304 0.364812 1.689 
904 792 -7.307846 0.675062 1.567 
920 792 -7.170918 1.196084 3.207 
936 792 -7.035455 1.231727 2.401 
952 792 -7.013863 1.381988 2.149 
968 792 -7.146209 1.110573 2.703 
984 792 -7.601592 0.424085 2.571 
1000 792 -7.652614 0.248830 3.633 
1016 792 -7.703636 0.073575 1.603 
1032 792 -7.591882 -0.440130 3.478 
1048 792 -7.480128 -0.953834 2.198 
1064 792 -7.368374 -1.467539 1.517 
1080 792 -7.256620 -1.981243 1.869 
1096 792 -7.557554 -3.192668 1.682 
1112 792 -6.861454 -3.108030 1.457 
1128 792 -6.165354 -3.023392 1.176 
1144 792 -5.469254 -2.938754 1.040 
1160 792 -4.773154 -2.854116 1.310 
1176 792 -1.449247 -2.076129 1.040 
1192 792 1.874661 -1.298142 1.029 
1208 792 10.828620 -2.555703 1.008 
1224 792 8.875008 3.110296 1.004 
1240 792 6.921396 8.776295 1.285 
1256 792 2.005615 0.640079 1.047 
1272 792 0.000000 -0.000000 1.152 
8 776 2.734033 -1.189994 1.023 
24 776 2.317058 -5.098439 1.015 
40 776 1.900083 -9.006884 1.681 
56 776 0.929321 -10.816353 1.018 
72 776 0.376719 -12.538132 1.408 
88 776 0.149909 -13.324208 1.029 
104 776 -0.029823 -16.804582 1.203 
120 776 -0.939862 -15.030704 1.170 
136 776 -2.228935 -11.563155 1.596 
152 776 -4.223338 -7.874728 1.496 
168 776 -3.898362 -3.095977 1.005 
184 776 -3.573385 1.682774 1.545 
200 776 -7.088033 2.410854 1.069 
216 776 -6.549859 1.500053 1.157 
232 776 -6.076702 0.812508 1.663 
248 776 -6.315380 0.519759 2.856 
264 776 -6.175327 0.891988 4.980 
280 776 -5.956016 1.541446 2.255 
296 776 -5.903178 2.063323 3.723 
312 776 -6.087082 2.215721 3.687 
328 776 -6.955340 2.058866 2.110 
344 776 -6.590605 2.075543 2.029 
360 776 -6.758067 1.760377 1.477 
376 776 -7.810814 1.354564 3.274 
392 776 -8.690177 0.998607 3.301 
408 776 -8.702556 0.701758 2.007 
424 776 -8.288577 0.194828 3.146 
440 776 -8.187772 -0.017250 2.364 
456 776 -8.212104 0.228523 3.357 
472 776 -7.949595 0.640189 3.198 
488 776 -7.285440 1.206497 2.544 
504 776 -6.257104 1.680107 2.943 
520 776 -5.351219 2.181841 2.172 
536 776 -5.134649 2.301093 1.294 
552 776 -4.893032 2.339982 1.209 
568 776 -4.911113 2.125489 1.454 
584 776 -5.211012 1.675265 2.680 
600 776 -5.714823 0.943906 2.499 
616 776 -5.893037 1.273819 2.758 
632 776 -5.629612 1.447055 1.435 
648 776 -5.313502 1.434199 1.730 
664 776 -5.352835 1.666455 2.400 
680 776 -5.441223 1.723329 4.390 
696 776 -5.686941 1.695468 2.180 
712 776 -6.151257 1.686619 2.419 
728 776 -6.318298 1.747838 2.965 
744 776 -6.525172 1.388637 1.985 
760 776 -7.050968 0.839953 3.120 
776 776 -6.941303 0.693104 1.899 
792 776 -6.436792 1.077465 2.391 
808 776 -6.519762 1.281660 3.522 
824 776 -6.763361 0.933242 1.688 
840 776 -7.050681 0.414156 1.675 
856 776 -7.393975 0.263970 2.305 
872 776 -7.731244 0.188990 2.739 
888 776 -7.728252 0.295843 1.787 
904 776 -7.292851 0.665505 1.631 
920 776 -7.213686 1.158363 3.255 
936 776 -7.134466 1.044514 2.250 
952 776 -7.109107 1.115811 2.184 
968 776 -7.201401 0.938868 2.812 
984 776 -7.607080 0.449202 2.644 
1000 776 -7.946791 0.364490 3.710 
1016 776 -7.790361 0.455929 1.629 
1032 776 -7.742015 0.632864 3.371 
1048 776 -7.853419 0.535929 2.202 
1064 776 -7.755738 0.455338 1.450 
1080 776 -7.658057 0.374747 1.775 
1096 776 -8.316181 -0.580507 1.963 
1112 776 -8.611213 -2.566727 1.553 
1128 776 -6.365966 -2.982596 1.320 
1144 776 -5.005356 -2.101546 1.025 
1160 776 -3.644746 -1.220497 1.341 
1176 776 -2.755718 -1.442486 1.006 
1192 776 -1.866691 -1.664476 1.001 
1208 776 10.415913 -2.610739 1.007 
1224 776 9.683450 3.413906 1.019 
1240 776 8.950988 9.438551 1.388 
1256 776 8.210340 6.245661 1.052 
1272 776 3.162035 0.830059 1.154 
8 760 1.673964 0.987048 1.279 
24 760 1.742311 -2.202168 1.319 
40 760 1.889392 -4.328684 1.073 
56 760 1.201750 -6.269398 1.323 
72 760 1.500136 -6.944649 1.280 
88 760 1.498529 -5.550220 1.030 
104 760 0.641792 -6.156456 1.253 
120 760 -0.729503 -6.505427 1.191 
136 760 -2.527415 -5.998874 1.190 
152 760 -4.516600 -3.580708 1.398 
168 760 -5.373023 0.669333 1.053 
184 760 -6.599279 2.780131 1.067 
200 760 -7.527961 3.166935 2.793 
216 760 -7.281861 2.260466 2.115 
232 760 -6.209123 1.449191 3.957 
248 760 -6.347219 0.741649 3.750 
264 760 -6.063260 0.847184 1.750 
280 760 -5.841867 1.464623 3.389 
296 760 -5.404029 2.478147 3.148 
312 760 -5.308016 2.870190 4.729 
328 760 -5.325530 2.884180 3.394 
344 760 -5.078777 2.525173 1.486 
360 760 -5.666617 1.775268 1.666 
376 760 -7.281969 1.395240 2.223 
392 760 -8.053328 1.069110 6.440 
408 760 -8.362658 0.471703 2.887 
424 760 -8.173247 -0.212273 1.831 
440 760 -7.907007 -0.491538 1.308 
456 760 -7.670124 -0.236783 1.595 
472 760 -7.451590 0.747126 2.324 
488 760 -6.719288 1.552815 1.635 
504 760 -6.040331 1.726214 2.682 
520 760 -5.517155 1.975006 2.773 
536 760 -5.414710 2.168753 1.395 
552 760 -5.249543 1.965656 1.985 
568 760 -5.251372 1.603615 1.857 
584 760 -5.889041 0.704716 2.125 
600 760 -5.943893 0.588485 2.570 
616 760 -6.068826 1.034494 2.494 
632 760 -5.789712 1.185039 2.267 
648 760 -5.557784 1.418906 2.853 
664 760 -5.387304 1.951278 3.200 
680 760 -5.572930 1.864558 2.745 
696 760 -6.019769 1.566879 3.761 
712 760 -6.446075 1.318588 1.760 
728 760 -6.754993 1.427175 2.986 
744 760 -6.827513 1.624876 2.628 
760 760 -6.795463 1.450397 3.040 
776 760 -6.861848 1.037863 2.025 
792 760 -6.634025 1.086490 3.142 
808 760 -6.512092 1.173146 4.244 
824 760 -6.789191 0.474384 3.696 
840 760 -7.125141 -0.076072 3.842 
856 760 -7.340282 -0.125852 5.023 
872 760 -7.569376 -0.114455 1.932 
888 760 -7.644593 0.031863 3.446 
904 760 -7.363844 0.954546 2.767 
920 760 -7.354830 1.310088 2.002 
936 760 -7.419983 0.740460 1.697 
952 760 -7.361847 0.353548 2.398 
968 760 -7.361351 0.558923 2.731 
984 760 -7.631720 0.345065 2.890 
1000 760 -7.819749 0.374971 2.612 
1016 760 -7.695338 0.407576 1.291 
1032 760 -7.636540 0.131435 1.793 
1048 760 -7.828540 0.330707 2.038 
1064 760 -7.462059 0.369160 2.457 
1080 760 -8.086245 0.006750 2.288 
1096 760 -9.085780 -0.672633 1.715 
1112 760 -9.786339 -1.400544 1.106 
1128 760 -7.121215 -1.331883 2.847 
1144 760 -3.922647 -0.789041 1.025 
1160 760 -4.734410 -0.473754 1.000 
1176 760 -4.352250 -0.880360 1.034 
1192 760 -3.214263 -1.255632 1.116 
1208 760 -1.320449 -1.599571 1.148 
1224 760 4.830065 4.250618 1.085 
1240 760 10.980580 10.100808 1.669 
1256 760 12.463760 7.817687 1.104 
1272 760 7.210201 1.343065 1.049 
8 744 -0.734265 1.061603 1.863 
24 744 1.618557 0.895150 1.851 
40 744 1.498533 -0.755477 1.070 
56 744 1.286142 -0.566418 1.296 
72 744 1.719486 -0.326402 1.191 
88 744 1.534635 -0.241348 1.009 
104 744 0.923076 5.008080 1.112 
120 744 -0.700272 3.258425 1.046 
136 744 -2.753901 1.184449 1.159 
152 744 -4.865388 0.777729 1.550 
168 744 -5.529040 3.111470 1.483 
184 744 -6.497363 4.000691 1.057 
200 744 -7.381714 3.723435 1.393 
216 744 -7.067642 3.077597 1.190 
232 744 -6.441717 2.159704 3.488 
248 744 -6.372793 1.214934 2.492 
264 744 -5.989546 1.063621 1.574 
280 744 -5.601705 1.487198 3.157 
296 744 -5.154565 2.309112 2.391 
312 744 -5.031567 2.738143 3.660 
328 744 -4.796833 2.941967 2.519 
344 744 -5.028350 2.453524 1.058 
360 744 -4.836605 1.828704 1.136 
376 744 -6.386450 1.548135 2.525 
392 744 -7.061584 1.156350 3.769 
408 744 -7.416669 0.535771 2.277 
424 744 -7.487304 -0.363890 2.450 
440 744 -7.178805 -0.595480 2.303 
456 744 -7.337222 -0.666314 1.639 
472 744 -6.860792 0.991498 1.580 
488 744 -6.576260 1.820213 1.573 
504 744 -6.309344 2.267013 2.537 
520 744 -5.881305 2.396751 4.078 
536 744 -5.758560 2.405468 2.547 
552 744 -6.049514 1.818468 1.156 
568 744 -6.315381 1.046145 1.605 
584 744 -6.529966 0.403771 1.693 
600 744 -6.432681 0.449637 3.108 
616 744 -6.211421 1.008268 1.922 
632 744 -5.832150 1.310629 1.862 
648 744 -5.691013 1.744484 3.191 
664 744 -5.544108 2.157550 4.378 
680 744 -5.575529 1.970362 3.407 
696 744 -6.025717 1.468736 3.753 
712 744 -6.510624 1.196448 2.629 
728 744 -6.767227 1.314884 2.335 
744 744 -6.886575 1.507458 3.117 
760 744 -6.894552 1.473628 2.718 
776 744 -7.028465 1.152796 3.823 
792 744 -6.876953 0.998763 2.696 
808 744 -6.698042 1.036654 2.997 
824 744 -6.802933 0.502964 2.215 
840 744 -7.069794 -0.212916 3.081 
856 744 -6.914035 -0.058694 2.975 
872 744 -7.281214 -0.050368 2.800 
888 744 -7.520049 0.139838 2.303 
904 744 -7.481122 1.374723 3.845 
920 744 -7.658070 1.485160 1.926 
936 744 -7.574796 0.823455 2.103 
952 744 -7.462207 0.176828 3.904 
968 744 -7.510011 0.120471 3.358 
984 744 -7.599434 0.127948 3.495 
1000 744 -7.649480 0.178772 2.706 
1016 744 -7.566173 0.276053 1.668 
1032 744 -7.450757 0.018373 1.990 
1048 744 -7.508969 -0.163095 2.515 
1064 744 -7.342539 0.024162 1.522 
1080 744 -10.097280 -2.176309 1.094 
1096 744 -10.759356 -2.585814 1.550 
1112 744 -11.271945 -3.019583 1.172 
1128 744 -8.137923 -1.046006 1.735 
1144 744 -5.675441 -0.665213 1.595 
1160 744 -5.328170 -0.480982 1.054 
1176 744 -6.455649 -0.502849 1.002 
1192 744 -3.395267 -0.691067 1.045 
1208 744 -0.334885 -0.879285 1.500 
1224 744 0.249587 -2.645160 1.054 
1240 744 6.127228 -3.147352 1.239 
1256 744 11.730887 -2.356611 1.140 
1272 744 11.258367 1.856071 1.220 
8 728 -3.142495 1.136158 1.064 
24 728 -3.643935 0.460222 1.012 
40 728 -1.767758 0.694811 1.138 
56 728 -1.166388 1.476758 1.101 
72 728 0.234088 2.679481 1.702 
88 728 1.570740 5.067525 1.610 
104 728 0.109005 5.920999 1.320 
120 728 -1.352730 6.774474 1.071 
136 728 -3.735609 3.370425 1.600 
152 728 -5.052119 3.432717 1.497 
168 728 -5.521147 4.277084 1.557 
184 728 -6.323862 4.394382 2.148 
200 728 -6.915707 4.011950 2.645 
216 728 -6.888856 3.952269 2.636 
232 728 -6.717465 3.063928 2.582 
248 728 -6.158532 2.217896 2.885 
264 728 -5.928538 1.177332 2.934 
280 728 -5.605968 1.068805 2.155 
296 728 -5.406503 1.653437 1.563 
312 728 -5.341814 1.965369 1.755 
328 728 -5.130560 2.138687 1.547 
344 728 -4.977923 2.381876 2.450 
360 728 -5.039305 2.043966 1.534 
376 728 -5.050745 1.598525 1.727 
392 728 -4.826624 1.521962 1.680 
408 728 -5.568100 0.690300 2.111 
424 728 -5.977238 -0.376635 2.348 
440 728 -6.450602 -0.699421 3.796 
456 728 -6.425728 -0.317556 2.923 
472 728 -6.406702 1.147702 1.371 
488 728 -6.433320 2.542311 1.811 
504 728 -6.215692 3.007699 1.633 
520 728 -6.172949 3.526229 1.856 
536 728 -6.262660 3.139105 2.736 
552 728 -6.606847 2.389916 2.969 
568 728 -6.528046 1.381835 3.801 
584 728 -6.357724 0.580804 2.458 
600 728 -6.216945 0.536422 2.953 
616 728 -5.925174 1.085244 2.523 
632 728 -5.527555 1.579140 1.498 
648 728 -5.395855 1.945500 2.647 
664 728 -5.531582 2.093859 3.920 
680 728 -5.668324 1.768320 3.387 
696 728 -6.094396 1.266363 3.169 
712 728 -6.528400 1.108439 4.509 
728 728 -6.846851 1.213650 2.602 
744 728 -6.871908 1.383322 2.945 
760 728 -6.999003 1.365455 2.675 
776 728 -7.314548 0.955031 2.182 
792 728 -7.337143 0.711757 2.372 
808 728 -7.153044 0.853778 3.437 
824 728 -6.954701 0.554299 1.614 
840 728 -6.845910 -0.084412 1.714 
856 728 -6.758618 0.060253 9.198 
872 728 -7.121463 0.054482 20.848 
888 728 -7.494217 0.353112 5.617 
904 728 -7.633599 0.954675 2.036 
920 728 -7.656947 1.277982 1.829 
936 728 -7.685735 0.482120 2.991 
952 728 -7.649742 0.179756 2.844 
968 728 -7.798773 0.098026 2.576 
984 728 -7.741404 -0.055249 4.359 
1000 728 -7.678525 0.031555 2.752 
1016 728 -7.810885 0.234527 2.654 
1032 728 -7.640791 0.076923 2.602 
1048 728 -7.478326 -0.119667 3.420 
1064 728 -7.129813 0.060617 1.563 
1080 728 -12.108315 -4.359367 1.430 
1096 728 -12.432933 -4.498994 1.843 
1112 728 -12.757551 -4.638622 2.052 
1128 728 -7.687224 -0.093294 2.904 
1144 728 -6.673413 -0.242086 2.323 
1160 728 -5.921931 -0.488209 1.047 
1176 728 -5.134925 -0.629763 1.241 
1192 728 -2.255382 -0.581649 1.074 
1208 728 0.624161 -0.533535 1.044 
1224 728 2.045757 -2.628177 1.008 
1240 728 3.422024 -3.308491 1.202 
1256 728 8.274938 -3.082306 1.018 
1272 728 8.725934 -1.085402 1.011 
8 712 -8.750935 -1.062658 1.036 
24 712 -9.095807 -1.422393 1.019 
40 712 -6.627104 0.336380 1.306 
56 712 -3.231166 2.694822 1.091 
72 712 -0.894562 4.714034 1.032 
88 712 0.176964 5.323866 1.215 
104 712 -0.277085 5.956550 1.193 
120 712 -2.256708 6.612088 1.143 
136 712 -4.934435 4.237695 2.571 
152 712 -5.621875 4.167969 1.161 
168 712 -5.593557 5.094318 1.682 
184 712 -6.363036 4.974395 1.768 
200 712 -6.427409 4.606905 2.201 
216 712 -6.567731 4.290137 2.541 
232 712 -6.299531 4.207462 1.924 
248 712 -6.213558 3.785601 2.589 
264 712 -5.517324 2.292321 4.962 
280 712 -5.402822 1.481318 1.751 
296 712 -5.264846 1.465511 1.539 
312 712 -5.200159 1.346406 3.822 
328 712 -5.164987 1.618035 2.831 
344 712 -5.126166 2.304315 1.981 
360 712 -5.196110 2.487028 1.607 
376 712 -4.918032 2.751156 1.496 
392 712 -4.391701 1.970677 1.891 
408 712 -4.739009 0.495232 2.232 
424 712 -5.326903 -0.070612 2.064 
440 712 -5.009904 -0.613341 1.526 
456 712 -5.384199 0.243711 2.215 
472 712 -5.621877 1.260341 1.598 
488 712 -5.589174 2.242099 1.277 
504 712 -5.722655 3.569799 1.145 
520 712 -5.861965 3.862862 1.556 
536 712 -6.166919 3.472782 1.902 
552 712 -6.473589 2.505559 2.453 
568 712 -6.111575 1.437383 3.176 
584 712 -5.393804 0.546991 2.535 
600 712 -5.422106 0.398677 2.397 
616 712 -5.068490 0.881219 1.815 
632 712 -4.609302 1.533548 1.733 
648 712 -4.749771 1.785135 1.834 
664 712 -5.156757 1.695829 1.910 
680 712 -5.712269 1.276736 2.544 
696 712 -6.167088 1.016376 1.925 
712 712 -6.431695 1.071145 2.650 
728 712 -6.964953 1.121995 3.037 
744 712 -6.841450 1.199471 3.071 
760 712 -7.043625 1.161684 2.939 
776 712 -7.551127 0.715557 2.773 
792 712 -7.896069 0.367728 2.207 
808 712 -7.790267 0.432830 1.736 
824 712 -7.487197 0.179920 1.228 
840 712 -7.225771 -0.197369 1.736 
856 712 -6.937477 0.052708 12.772 
872 712 -7.119536 0.119908 7.309 
888 712 -7.497021 0.276188 3.647 
904 712 -7.709662 0.584431 2.323 
920 712 -7.817574 0.691742 2.100 
936 712 -7.822983 0.440347 3.276 
952 712 -7.814461 0.277353 5.177 
968 712 -7.875150 0.219713 5.622 
984 712 -7.759815 -0.009694 3.565 
1000 712 -7.795808 0.073748 2.816 
1016 712 -7.907315 0.252134 2.441 
1032 712 -7.661989 0.203865 3.268 
1048 712 -7.525768 0.082083 2.432 
1064 712 -7.117410 0.335366 2.129 
1080 712 -7.216343 0.290254 1.071 
1096 712 -7.156425 0.286051 1.217 
1112 712 -7.096508 0.281848 1.471 
1128 712 -7.478651 0.068217 2.146 
1144 712 -7.445578 -0.118477 3.559 
1160 712 -7.764895 -0.750133 1.607 
1176 712 -6.906057 -0.911931 3.677 
1192 712 -3.928517 -0.625989 1.976 
1208 712 0.650650 -0.081248 1.074 
1224 712 2.605783 -1.559665 1.008 
1240 712 3.128968 -3.076984 1.151 
1256 712 3.609171 -2.571111 1.359 
1272 712 7.820934 0.327157 1.339 
8 696 -9.277958 -2.733117 1.149 
24 696 -8.723848 -2.543457 1.138 
40 696 -5.948478 -0.111652 1.003 
56 696 -5.295944 3.912887 1.413 
72 696 -0.085012 5.948098 1.048 
88 696 -0.115150 6.069068 1.243 
104 696 -0.145287 6.190039 1.062 
120 696 -3.392003 5.424830 1.075 
136 696 -5.527571 4.429591 1.286 
152 696 -6.059537 4.348833 1.023 
168 696 -5.965084 4.983711 1.084 
184 696 -6.252569 5.316900 1.782 
200 696 -6.157604 4.829576 1.136 
216 696 -6.311926 4.323572 1.444 
232 696 -6.267090 4.567377 1.862 
248 696 -6.021415 4.465187 1.961 
264 696 -5.626450 3.271412 3.205 
280 696 -5.218865 1.986819 1.496 
296 696 -4.964126 1.601303 1.691 
312 696 -4.902410 1.421810 1.695 
328 696 -4.768421 1.828464 2.194 
344 696 -5.019730 2.469083 1.723 
360 696 -5.153940 2.833277 2.117 
376 696 -4.575942 3.196616 2.063 
392 696 -4.762543 2.143887 2.622 
408 696 -5.101092 0.945833 2.213 
424 696 -4.958110 0.174707 1.734 
440 696 -4.077251 -0.093269 2.950 
456 696 -4.300426 0.435864 3.607 
472 696 -4.545998 1.196743 2.113 
488 696 -4.471414 2.137581 2.230 
504 696 -4.612445 3.064009 1.433 
520 696 -4.957366 3.366210 1.011 
536 696 -5.702532 3.250946 2.189 
552 696 -5.907346 2.694300 3.274 
568 696 -5.265972 1.647656 2.658 
584 696 -4.692164 0.627213 1.857 
600 696 -4.761478 0.593431 2.013 
616 696 -4.208074 0.825554 1.888 
632 696 -4.451178 1.242450 2.016 
648 696 -4.467439 1.107724 1.869 
664 696 -5.273679 0.519065 1.754 
680 696 -5.905809 0.318971 2.675 
696 696 -5.933799 0.761016 1.995 
712 696 -6.474480 0.840077 3.376 
728 696 -6.945939 0.943870 1.957 
744 696 -6.930380 1.033283 1.826 
760 696 -6.992713 0.923850 2.414 
776 696 -7.265290 0.652525 3.087 
792 696 -7.844211 0.041843 1.921 
808 696 -7.855827 0.161157 3.106 
824 696 -7.627721 -0.005587 1.624 
840 696 -7.268336 -0.090985 1.098 
856 696 -6.937612 0.215323 5.252 
872 696 -7.009373 0.424590 3.536 
888 696 -7.253539 0.349490 2.659 
904 696 -7.644740 0.555022 1.628 
920 696 -7.934731 0.573480 4.446 
936 696 -7.844694 0.539847 2.451 
952 696 -7.899939 0.556773 2.596 
968 696 -7.873961 0.441881 3.361 
984 696 -7.643024 0.164124 2.542 
1000 696 -7.770043 0.114497 1.468 
1016 696 -7.972316 0.085584 1.054 
1032 696 -7.789924 0.305424 2.742 
1048 696 -7.634274 0.216224 2.559 
1064 696 -7.313620 0.303948 2.994 
1080 696 -7.226971 0.258961 2.846 
1096 696 -7.221990 0.083870 2.446 
1112 696 -7.354869 0.088439 2.158 
1128 696 -7.270078 0.229728 2.290 
1144 696 -7.549494 -0.217843 1.322 
1160 696 -7.747302 -0.564230 1.340 
1176 696 -7.778626 -0.433170 2.303 
1192 696 -4.624717 0.717509 1.563 
1208 696 -2.214018 1.291159 1.126 
1224 696 3.903810 -0.591172 1.378 
1240 696 -0.902813 -0.996521 1.298 
1256 696 -0.933711 -0.135057 1.011 
1272 696 6.915934 1.739715 1.060 
8 680 -5.420829 -2.716247 1.112 
24 680 -4.969627 -2.576149 1.025 
40 680 -5.269852 -0.559683 1.072 
56 680 -3.821382 5.752220 1.052 
72 680 0.566793 6.068082 1.741 
88 680 -0.082949 5.057239 1.417 
104 680 -0.732691 4.046395 1.047 
120 680 -4.527298 4.237573 1.153 
136 680 -6.020527 4.178696 5.346 
152 680 -6.283725 4.063946 1.316 
168 680 -6.594968 4.549922 1.265 
184 680 -6.775433 4.788404 1.171 
200 680 -6.483315 4.467228 2.937 
216 680 -6.433365 4.215113 1.315 
232 680 -6.176762 4.276496 1.581 
248 680 -5.768960 4.447910 1.388 
264 680 -5.325496 3.459526 1.536 
280 680 -4.961143 2.375658 1.207 
296 680 -5.157654 1.830558 1.427 
312 680 -5.041761 1.805223 1.189 
328 680 -4.924537 2.149705 2.185 
344 680 -5.188944 2.406780 1.007 
360 680 -5.121954 3.001452 1.150 
376 680 -4.902760 3.214948 1.263 
392 680 -4.720251 2.371781 2.440 
408 680 -4.864435 1.476549 4.038 
424 680 -4.124466 0.886028 4.322 
440 680 -3.295097 0.526511 1.756 
456 680 -3.430400 0.473905 3.236 
472 680 -3.615420 1.071455 2.347 
488 680 -3.699781 2.068021 2.651 
504 680 -3.839224 2.790589 1.109 
520 680 -4.392976 2.819331 1.246 
536 680 -5.129221 2.876101 3.227 
552 680 -5.569532 2.537716 2.232 
568 680 -5.398352 1.731112 2.793 
584 680 -4.282727 0.891751 2.605 
600 680 -4.100851 0.788186 1.799 
616 680 -3.989540 0.871294 1.115 
632 680 -4.293055 0.951352 1.664 
648 680 -5.272339 0.860276 1.743 
664 680 -6.325871 0.439639 3.458 
680 680 -6.872128 0.472885 3.056 
696 680 -6.532201 0.336571 2.783 
712 680 -7.002375 0.545158 1.542 
728 680 -7.067642 0.708010 1.154 
744 680 -6.892089 0.858911 1.551 
760 680 -6.628159 0.874263 6.725 
776 680 -6.857107 0.627710 3.895 
792 680 -7.291941 0.143221 3.618 
808 680 -7.554312 -0.073209 2.884 
824 680 -7.366562 -0.013196 1.906 
840 680 -6.941942 0.093640 2.382 
856 680 -6.817402 0.148004 8.060 
872 680 -6.981969 0.362665 3.154 
888 680 -7.329922 0.317378 2.440 
904 680 -7.610648 0.418062 1.111 
920 680 -7.876331 0.589767 1.454 
936 680 -7.874249 0.626949 1.869 
952 680 -7.818586 0.785431 2.670 
968 680 -7.699343 0.692262 5.734 
984 680 -7.460266 0.281039 2.233 
1000 680 -7.434175 0.119448 1.980 
1016 680 -7.698434 0.213380 1.490 
1032 680 -7.650581 0.391140 2.752 
1048 680 -7.538637 0.261722 3.119 
1064 680 -7.319508 0.232463 3.302 
1080 680 -6.966563 0.149389 3.222 
1096 680 -6.711395 -0.058866 4.817 
1112 680 -6.984320 0.012463 2.098 
1128 680 -7.176879 0.012250 1.578 
1144 680 -7.349341 -0.274106 1.063 
1160 680 -7.729709 -0.378327 1.277 
1176 680 -7.293737 -0.038821 2.012 
1192 680 -3.850230 0.364248 1.298 
1208 680 -0.726282 0.897872 1.320 
1224 680 1.892426 0.605153 1.378 
1240 680 -4.934595 1.083942 1.189 
1256 680 -5.476593 2.300997 1.071 
1272 680 6.010934 3.152274 1.040 
8 664 -1.519800 -2.304380 1.106 
24 664 -1.477350 -2.152089 1.110 
40 664 -2.241195 -0.402066 1.221 
56 664 -2.339848 8.170374 1.895 
72 664 -0.282449 6.879238 1.239 
88 664 0.494952 3.426033 1.201 
104 664 -2.451305 3.050788 1.041 
120 664 -4.846379 3.587869 1.423 
136 664 -6.005332 3.996143 5.181 
152 664 -6.200033 3.896317 2.480 
168 664 -6.707809 4.083144 1.790 
184 664 -7.011897 4.236037 1.608 
200 664 -6.726294 3.966952 2.449 
216 664 -6.468509 4.047088 2.049 
232 664 -6.206290 4.378063 1.415 
248 664 -5.722702 4.209015 1.142 
264 664 -5.110410 3.460850 1.305 
280 664 -5.170220 2.830946 1.097 
296 664 -5.241567 2.232781 1.455 
312 664 -5.107051 2.015150 3.267 
328 664 -5.241068 1.975003 2.559 
344 664 -5.369878 2.311216 1.972 
360 664 -5.121058 3.080768 1.007 
376 664 -5.145800 3.250048 1.760 
392 664 -4.499280 3.087461 1.610 
408 664 -4.890467 2.294823 1.034 
424 664 -4.065075 1.903388 1.667 
440 664 -3.068422 1.137477 1.905 
456 664 -3.079736 0.382843 2.243 
472 664 -3.211955 0.299883 2.175 
488 664 -3.346552 1.850563 1.360 
504 664 -3.441696 2.263043 3.269 
520 664 -4.127097 2.014859 2.197 
536 664 -5.098786 2.005150 3.328 
552 664 -5.513136 2.123015 3.032 
568 664 -5.530733 1.814568 3.633 
584 664 -5.541881 1.149560 2.125 
600 664 -5.215941 0.892146 1.357 
616 664 -4.592409 0.842887 1.107 
632 664 -5.163152 0.746987 1.085 
648 664 -6.357621 0.670097 2.099 
664 664 -7.572418 0.586814 1.629 
680 664 -7.838447 0.626798 1.850 
696 664 -7.354051 0.548813 1.552 
712 664 -7.208210 0.363228 1.323 
728 664 -7.108720 0.471274 1.488 
744 664 -6.770991 0.706029 3.622 
760 664 -6.476674 0.798747 3.336 
776 664 -6.625658 0.513337 6.264 
792 664 -7.175328 0.005020 3.658 
808 664 -7.409090 -0.451382 1.969 
824 664 -7.093984 -0.075448 2.510 
840 664 -7.135481 0.117307 3.181 
856 664 -7.476329 0.020067 1.379 
872 664 -7.542595 0.227072 1.798 
888 664 -7.498584 0.457112 1.341 
904 664 -7.605213 0.403702 1.843 
920 664 -7.546858 0.621829 3.588 
936 664 -7.560878 0.827207 2.411 
952 664 -7.624575 0.963917 1.295 
968 664 -7.653303 0.854101 2.046 
984 664 -7.130041 0.484944 2.471 
1000 664 -7.128343 0.371373 1.725 
1016 664 -7.463325 0.420956 2.005 
1032 664 -7.396447 0.290056 3.572 
1048 664 -7.282892 0.143584 3.663 
1064 664 -7.053193 0.100977 4.147 
1080 664 -6.612280 0.149105 2.861 
1096 664 -6.433455 -0.116713 3.896 
1112 664 -6.857844 -0.137785 1.513 
1128 664 -7.040824 -0.123872 1.997 
1144 664 -7.196078 -0.295577 1.211 
1160 664 -7.346580 -0.457417 4.732 
1176 664 -6.248201 -0.312864 2.409 
1192 664 -2.691699 -0.067084 3.863 
1208 664 1.130590 0.191918 1.362 
1224 664 0.670137 1.505178 1.067 
1240 664 -0.418448 1.939068 1.038 
1256 664 -1.173705 3.486032 1.204 
1272 664 5.105935 4.564833 1.093 
8 648 0.439299 -0.524442 1.589 
24 648 0.922942 -0.425450 1.565 
40 648 0.685030 1.838403 1.611 
56 648 -1.743402 8.538943 1.534 
72 648 -1.131690 7.690393 1.643 
88 648 -1.614271 5.583372 1.152 
104 648 -3.922560 3.429344 1.036 
120 648 -5.242395 3.184481 1.762 
136 648 -5.761341 3.608583 2.493 
152 648 -5.782087 3.724675 1.796 
168 648 -5.880441 3.542452 1.868 
184 648 -5.963794 3.921924 2.049 
200 648 -6.282684 3.760505 2.271 
216 648 -6.339126 3.828600 2.223 
232 648 -6.297079 4.386267 1.638 
248 648 -5.999982 4.176960 1.115 
264 648 -5.693656 3.334079 3.614 
280 648 -5.429618 2.732781 2.587 
296 648 -5.201732 2.189107 2.225 
312 648 -5.178721 1.996141 1.954 
328 648 -5.312051 2.024000 2.809 
344 648 -4.868926 2.359322 3.053 
360 648 -4.973716 2.875221 1.127 
376 648 -4.950480 3.185818 1.458 
392 648 -4.387442 3.259663 1.627 
408 648 -4.747311 2.789614 1.684 
424 648 -4.310644 3.196110 2.067 
440 648 -3.944044 2.705681 1.484 
456 648 -3.695028 1.541844 1.039 
472 648 -3.460997 0.934217 1.063 
488 648 -3.483960 1.330149 1.108 
504 648 -3.363169 1.667271 2.217 
520 648 -4.071823 1.252524 2.875 
536 648 -5.028845 1.194132 3.974 
552 648 -5.476495 1.366587 2.225 
568 648 -5.805619 1.400082 3.790 
584 648 -6.333736 0.786421 2.932 
600 648 -6.502552 0.145144 2.243 
616 648 -6.121755 -0.095318 2.136 
632 648 -6.283677 -0.209493 1.699 
648 648 -6.860157 0.461456 2.088 
664 648 -7.575867 0.593161 2.420 
680 648 -7.860544 0.491067 1.745 
696 648 -7.532921 0.308395 1.132 
712 648 -6.828243 0.041906 2.975 
728 648 -6.495117 0.272371 2.249 
744 648 -6.048866 0.648447 1.475 
760 648 -6.212919 0.581834 1.512 
776 648 -6.820257 0.119359 3.506 
792 648 -7.629979 -0.365930 2.746 
808 648 -7.762555 -0.661482 1.179 
824 648 -7.365708 -0.245621 1.352 
840 648 -7.423317 -0.016185 3.737 
856 648 -7.401110 -0.101205 1.972 
872 648 -7.818369 0.202812 1.940 
888 648 -7.487984 0.556557 1.168 
904 648 -7.309945 0.719547 2.142 
920 648 -7.090214 0.879407 3.288 
936 648 -6.966170 1.347302 4.203 
952 648 -7.184232 1.118111 2.079 
968 648 -7.107360 0.788410 1.959 
984 648 -6.994586 0.437292 4.353 
1000 648 -7.135593 0.366284 2.523 
1016 648 -7.703481 0.331064 3.854 
1032 648 -7.617512 0.249987 2.736 
1048 648 -7.515654 -0.127402 3.073 
1064 648 -7.178987 -0.090383 2.677 
1080 648 -6.761817 0.041020 2.422 
1096 648 -6.787384 0.053424 2.788 
1112 648 -7.130095 -0.188145 3.006 
1128 648 -7.120169 -0.201113 3.453 
1144 648 -7.314269 -0.225953 3.613 
1160 648 -7.233634 -0.101791 2.825 
1176 648 -6.177900 0.023738 2.817 
1192 648 -2.952041 -0.004883 2.307 
1208 648 0.449283 0.193443 2.115 
1224 648 0.740303 0.686549 1.357 
1240 648 1.782106 1.299823 1.242 
1256 648 3.091364 3.230992 1.139 
1272 648 4.200935 5.977391 1.192 
8 632 0.667169 1.970739 1.335 
24 632 0.935510 0.891331 1.450 
40 632 0.480384 3.991216 1.322 
56 632 -1.351335 9.163480 1.324 
72 632 -1.286756 7.432924 1.188 
88 632 -2.507638 4.919058 1.050 
104 632 -4.473208 3.051693 1.165 
120 632 -5.086119 3.300840 1.702 
136 632 -5.372215 3.690305 1.121 
152 632 -5.235016 3.836215 1.310 
168 632 -5.497234 3.587263 2.263 
184 632 -5.546969 3.532286 3.186 
200 632 -5.728523 3.513987 2.687 
216 632 -5.686387 3.762135 2.143 
232 632 -6.225182 4.056195 1.990 
248 632 -6.402811 3.975803 1.626 
264 632 -6.011647 2.993556 3.139 
280 632 -5.702725 2.635087 2.097 
296 632 -5.417763 2.207095 2.049 
312 632 -5.352792 2.191171 1.867 
328 632 -5.272302 2.687712 2.666 
344 632 -4.891756 2.605227 2.115 
360 632 -4.767320 2.669700 1.940 
376 632 -4.755161 3.121589 1.375 
392 632 -4.275604 3.431866 1.717 
408 632 -4.604155 3.284405 1.677 
424 632 -4.233983 3.700613 2.210 
440 632 -4.203846 3.529082 1.638 
456 632 -4.256075 2.573851 1.197 
472 632 -4.029756 1.712552 1.234 
488 632 -3.582823 1.764161 1.666 
504 632 -3.702870 1.522172 2.340 
520 632 -4.143952 1.041084 1.578 
536 632 -4.592976 1.033845 1.097 
552 632 -5.042001 1.026607 2.573 
568 632 -5.831077 1.117088 3.109 
584 632 -6.620257 0.600056 3.151 
600 632 -6.783626 0.160964 1.643 
616 632 -6.649327 -0.068927 3.914 
632 632 -6.631432 -0.469413 2.514 
648 632 -6.784593 -0.027353 2.220 
664 632 -6.972455 0.235552 2.377 
680 632 -7.310611 -0.175105 2.130 
696 632 -7.259791 -0.533087 1.671 
712 632 -6.349674 -0.329640 2.568 
728 632 -6.177948 0.190103 2.227 
744 632 -6.142594 0.427087 1.403 
760 632 -6.225968 0.245568 1.907 
776 632 -7.335688 -0.360680 1.816 
792 632 -7.937213 -0.725430 3.073 
808 632 -7.851752 -0.724046 1.542 
824 632 -7.438957 -0.137207 1.471 
840 632 -7.231071 0.038922 3.233 
856 632 -7.325891 -0.222478 3.160 
872 632 -7.241333 0.145222 1.345 
888 632 -7.132475 0.562371 1.566 
904 632 -7.101630 0.748260 2.227 
920 632 -6.940474 0.888721 3.669 
936 632 -6.827196 1.300399 2.638 
952 632 -6.743890 1.272306 1.833 
968 632 -6.768046 0.708988 2.291 
984 632 -6.938414 0.437375 3.564 
1000 632 -7.111118 0.264323 3.371 
1016 632 -7.605187 0.317814 2.131 
1032 632 -7.838577 0.209917 2.902 
1048 632 -7.490068 0.040661 3.703 
1064 632 -7.362111 -0.161375 2.559 
1080 632 -7.158781 -0.184563 2.755 
1096 632 -7.171245 -0.107885 2.581 
1112 632 -7.144663 -0.276494 2.780 
1128 632 -7.075802 -0.234530 3.157 
1144 632 -7.043154 -0.102713 4.048 