TITLE = "B00076"
VARIABLES = "x", "y", "u", "v", "sn"
ZONE T="Frame 0", I=80, J=50
8 792 18.125993 -3.545191 1.174 
24 792 16.253851 1.172816 1.173 
40 792 8.616509 5.900807 1.570 
56 792 6.719782 3.346786 1.013 
72 792 4.823054 0.792766 1.420 
88 792 2.926327 -1.761255 1.298 
104 792 1.029600 -4.315275 1.381 
120 792 -0.867127 -6.869296 1.435 
136 792 -2.000046 -5.719560 1.145 
152 792 -3.753892 -3.298872 1.111 
168 792 -5.507738 -0.878184 1.033 
184 792 -5.591996 0.758393 1.194 
200 792 -5.298722 1.126197 1.760 
216 792 -5.274993 0.779079 1.659 
232 792 -5.109645 0.636314 1.299 
248 792 -4.633394 0.702472 2.430 
264 792 -4.127650 0.827328 2.357 
280 792 -3.630192 0.689632 4.930 
296 792 -3.858269 0.527948 2.678 
312 792 -4.854539 0.661357 2.161 
328 792 -5.404257 0.645000 2.693 
344 792 -5.254041 0.690540 1.691 
360 792 -4.877922 0.938064 1.454 
376 792 -4.350249 1.882586 2.558 
392 792 -3.992160 2.908655 2.112 
408 792 -4.154078 3.538174 1.486 
424 792 -4.018653 3.624062 2.085 
440 792 -3.861512 2.907710 1.435 
456 792 -3.971866 2.674578 1.076 
472 792 -3.849665 2.798514 1.066 
488 792 -3.404002 2.892042 1.226 
504 792 -3.054917 3.097674 1.977 
520 792 -3.024109 2.457665 2.737 
536 792 -3.216233 1.533893 1.472 
552 792 -3.744337 1.604551 2.686 
568 792 -4.127595 1.316949 2.336 
584 792 -4.037319 1.074366 1.132 
600 792 -3.947043 0.831782 1.237 
616 792 -3.534804 0.839701 2.945 
632 792 -3.254020 1.026004 2.935 
648 792 -2.958920 1.541240 1.054 
664 792 -2.490579 2.045850 1.121 
680 792 -2.150243 2.220430 2.234 
696 792 -1.809908 2.395010 2.523 
712 792 -1.925901 3.368854 2.167 
728 792 -2.610258 3.349897 2.612 
744 792 -2.719765 2.160738 2.115 
760 792 -3.188812 1.405036 1.848 
776 792 -3.714614 1.138805 1.906 
792 792 -3.680486 1.095989 2.001 
808 792 -3.056251 0.934268 3.408 
824 792 -3.166643 0.717142 2.178 
840 792 -3.277034 0.500017 2.673 
856 792 -5.415762 0.749442 2.527 
872 792 -6.013042 0.748868 4.592 
888 792 -5.113158 -0.277652 2.225 
904 792 -4.230636 -1.678346 2.717 
920 792 -4.512458 -2.888357 2.554 
936 792 -5.383501 -3.318287 1.280 
952 792 -5.304479 -2.839825 1.926 
968 792 -4.573701 -1.924872 1.361 
984 792 -5.046434 -1.100352 1.096 
1000 792 -5.454284 -1.490475 2.611 
1016 792 -6.066098 -2.046485 2.355 
1032 792 -7.270601 -1.757071 1.866 
1048 792 -7.564222 -1.265467 3.211 
1064 792 -6.477170 -1.319749 2.507 
1080 792 -6.179645 -0.935150 2.359 
1096 792 -6.856902 -0.275891 1.464 
1112 792 -7.465361 -0.129185 1.336 
1128 792 -2.694902 5.164371 1.165 
1144 792 -1.940566 3.319896 1.767 
1160 792 -1.186229 1.475420 1.087 
1176 792 -0.431893 -0.369056 1.158 
1192 792 0.371803 -0.157489 1.815 
1208 792 0.051056 -0.683347 1.161 
1224 792 0.032595 -1.210501 1.469 
1240 792 0.000000 -0.000000 1.020 
1256 792 0.000000 -0.000000 1.039 
1272 792 0.000000 -0.000000 1.067 
8 776 17.942112 -3.251668 1.148 
24 776 8.740214 3.869572 1.148 
40 776 4.516841 6.148076 1.477 
56 776 -1.448863 9.932701 1.060 
72 776 -0.252996 5.875968 1.446 
88 776 -0.002860 1.016619 1.291 
104 776 -0.051852 -3.426096 1.331 
120 776 -0.388696 -4.605917 1.466 
136 776 0.563233 -1.941769 1.140 
152 776 -2.288423 -1.455239 1.053 
168 776 -5.090871 -0.215579 1.046 
184 776 -5.537239 1.213409 1.222 
200 776 -5.275163 1.383225 1.855 
216 776 -5.178796 1.011774 1.727 
232 776 -4.960680 0.941458 1.371 
248 776 -4.517704 0.961046 2.452 
264 776 -3.937337 0.964806 2.281 
280 776 -3.448481 0.757457 4.922 
296 776 -3.637019 0.568288 2.711 
312 776 -4.612592 0.679772 2.264 
328 776 -5.097487 0.711943 2.760 
344 776 -5.094085 0.933941 1.656 
360 776 -4.839332 1.248178 1.452 
376 776 -4.477985 2.035723 2.487 
392 776 -4.230709 2.916776 2.080 
408 776 -4.388466 3.586395 1.513 
424 776 -4.182638 3.583271 2.118 
440 776 -4.060290 2.797307 1.364 
456 776 -4.117501 2.517695 1.093 
472 776 -3.915718 2.713435 1.061 
488 776 -3.455183 2.790089 1.226 
504 776 -3.160824 3.021974 2.015 
520 776 -3.126543 2.421905 2.776 
536 776 -3.224378 1.548346 1.474 
552 776 -3.683930 1.564289 2.686 
568 776 -3.982143 1.386602 2.617 
584 776 -3.967538 1.092079 1.134 
600 776 -3.702601 1.101421 1.244 
616 776 -3.381209 1.069020 3.040 
632 776 -3.250745 0.977969 3.055 
648 776 -2.830806 1.684314 1.102 
664 776 -2.350578 2.223489 1.165 
680 776 -2.213961 2.422198 2.182 
696 776 -1.791628 2.863751 2.380 
712 776 -1.827722 3.295555 2.176 
728 776 -2.615293 3.195391 2.659 
744 776 -2.862327 1.958856 1.931 
760 776 -3.287373 1.219550 2.030 
776 776 -3.705171 0.968134 1.918 
792 776 -4.181988 0.915752 1.915 
808 776 -3.163830 0.744208 3.471 
824 776 -2.889601 0.414170 2.259 
840 776 -3.729020 0.349355 2.566 
856 776 -5.736001 0.642602 2.643 
872 776 -6.199192 0.723182 3.214 
888 776 -5.482655 -0.112178 2.434 
904 776 -4.458501 -1.432710 2.692 
920 776 -4.666865 -2.537247 2.527 
936 776 -5.360614 -3.039001 1.262 
952 776 -5.223846 -2.501699 1.918 
968 776 -4.391652 -1.664634 1.320 
984 776 -4.839267 -0.941646 1.143 
1000 776 -5.131837 -1.343219 2.696 
1016 776 -5.620606 -1.973666 2.377 
1032 776 -6.815564 -1.795469 1.771 
1048 776 -7.264198 -1.308727 3.371 
1064 776 -6.455665 -1.151593 2.350 
1080 776 -6.281608 -0.730247 2.391 
1096 776 -6.959635 -0.033011 1.496 
1112 776 -7.227182 0.173800 1.351 
1128 776 -4.214303 2.616746 1.160 
1144 776 -1.694385 2.349277 1.670 
1160 776 -1.154923 0.864410 1.054 
1176 776 -0.615462 -0.620457 1.110 
1192 776 0.367849 -0.249781 1.635 
1208 776 0.046618 -0.449334 1.203 
1224 776 0.140190 -0.617022 1.385 
1240 776 1.533682 5.111885 1.064 
1256 776 0.775290 10.915864 1.005 
1272 776 0.000000 -0.000000 1.076 
8 760 9.608837 -2.130300 1.204 
24 760 4.529654 3.629684 1.189 
40 760 0.417173 6.395346 1.000 
56 760 0.155441 11.684584 1.267 
72 760 2.297015 9.854759 1.049 
88 760 2.905101 5.931793 1.225 
104 760 0.394957 3.160480 1.141 
120 760 -0.218655 2.855085 1.214 
136 760 -0.762777 0.440132 1.025 
152 760 -2.485835 -0.040350 1.001 
168 760 -4.738222 0.896271 1.117 
184 760 -5.478204 1.688681 1.790 
200 760 -5.462536 1.521269 2.584 
216 760 -5.351441 1.254759 2.508 
232 760 -5.140282 1.366400 2.637 
248 760 -4.693677 1.500149 2.609 
264 760 -4.032777 1.346707 2.538 
280 760 -3.459764 0.949094 1.407 
296 760 -3.566525 0.479685 1.984 
312 760 -4.499633 0.428556 1.805 
328 760 -5.032091 0.699534 2.909 
344 760 -5.079147 1.022620 1.293 
360 760 -4.783948 1.615519 1.782 
376 760 -4.810793 2.269479 1.661 
392 760 -4.906540 2.773500 1.839 
408 760 -4.878024 3.490228 2.982 
424 760 -4.762634 3.624326 2.507 
440 760 -4.571778 2.835765 2.018 
456 760 -4.189621 2.227629 1.843 
472 760 -4.042191 2.481411 1.612 
488 760 -3.542331 2.445500 2.420 
504 760 -3.629566 2.746468 2.535 
520 760 -3.524394 2.131586 1.843 
536 760 -3.290070 1.442455 2.208 
552 760 -3.688219 1.333497 2.028 
568 760 -3.939002 1.257081 2.862 
584 760 -3.845704 1.362157 1.311 
600 760 -3.541021 1.619365 1.282 
616 760 -3.360866 1.366451 1.260 
632 760 -3.344473 1.190036 2.122 
648 760 -3.003047 1.721893 3.644 
664 760 -2.764268 2.542164 2.418 
680 760 -2.385041 2.964274 2.137 
696 760 -1.944134 3.113622 1.215 
712 760 -2.018804 3.185330 3.660 
728 760 -2.723247 2.621826 2.578 
744 760 -3.328150 1.565497 1.266 
760 760 -3.482145 0.716244 1.795 
776 760 -3.963287 0.446572 1.751 
792 760 -3.906898 0.743594 1.295 
808 760 -3.493800 0.338093 1.924 
824 760 -3.013972 -0.130604 1.769 
840 760 -4.017060 -0.109218 3.754 
856 760 -5.815575 0.512940 1.670 
872 760 -5.569792 0.328002 1.348 
888 760 -5.324009 0.143064 2.184 
904 760 -4.615285 -1.239300 2.145 
920 760 -4.662294 -2.216754 2.753 
936 760 -5.184063 -2.665344 2.465 
952 760 -4.860282 -2.360281 1.827 
968 760 -4.100186 -1.509397 1.110 
984 760 -4.060524 -0.955226 1.032 
1000 760 -4.225771 -1.261353 1.276 
1016 760 -4.895056 -2.013398 1.205 
1032 760 -5.799276 -2.123986 1.312 
1048 760 -6.264029 -1.646581 2.787 
1064 760 -6.138285 -1.239060 2.135 
1080 760 -6.166985 -0.570940 2.559 
1096 760 -6.689620 0.290071 3.064 
1112 760 -6.718139 0.369159 2.283 
1128 760 -5.733704 0.069120 2.835 
1144 760 -4.730507 -0.403346 2.329 
1160 760 -2.251817 -0.673238 1.756 
1176 760 0.245890 -0.567099 1.279 
1192 760 0.446833 -0.438868 1.468 
1208 760 -0.104319 0.073684 1.313 
1224 760 0.247785 -0.023543 1.426 
1240 760 2.296569 0.784033 1.008 
1256 760 1.157982 7.006347 1.054 
1272 760 1.433359 11.579139 1.006 
8 744 0.780069 -1.415078 1.277 
24 744 0.319094 3.389796 1.222 
40 744 0.068751 7.038296 1.138 
56 744 3.171129 15.008625 1.062 
72 744 3.272941 14.132809 1.078 
88 744 5.813062 10.846967 1.022 
104 744 -0.373869 9.086660 1.127 
120 744 -1.739035 6.131364 1.250 
136 744 -2.659601 2.625247 1.160 
152 744 -3.690562 1.061659 1.010 
168 744 -5.030322 1.273578 1.072 
184 744 -5.548414 1.663872 1.370 
200 744 -5.727846 1.502530 2.627 
216 744 -5.628726 1.409677 2.123 
232 744 -5.525507 1.688233 3.564 
248 744 -5.304587 1.794683 3.491 
264 744 -4.549541 1.497855 2.631 
280 744 -4.070485 0.837709 1.706 
296 744 -4.399559 0.511420 4.583 
312 744 -4.745090 0.373579 2.655 
328 744 -5.004006 0.567245 2.140 
344 744 -5.136442 0.992231 1.241 
360 744 -5.120949 1.705532 2.315 
376 744 -5.562901 2.020300 1.193 
392 744 -5.619036 2.538600 1.043 
408 744 -5.211945 3.626495 2.350 
424 744 -5.058294 3.755375 2.938 
440 744 -4.981909 2.581969 1.486 
456 744 -4.680618 2.223664 1.705 
472 744 -4.190619 2.295125 1.271 
488 744 -3.733973 2.301407 2.885 
504 744 -3.971110 2.476688 3.542 
520 744 -3.650049 1.899963 4.712 
536 744 -3.362231 1.225526 1.570 
552 744 -3.678621 0.922531 1.659 
568 744 -3.788721 0.910917 2.011 
584 744 -3.576118 1.248099 2.157 
600 744 -3.515340 1.642520 1.116 
616 744 -3.527472 1.651537 1.412 
632 744 -3.604945 1.661212 1.549 
648 744 -3.360660 2.050093 2.424 
664 744 -3.298672 2.839711 2.849 
680 744 -2.941079 3.125601 3.535 
696 744 -2.364051 2.732310 1.964 
712 744 -2.031873 2.231914 2.425 
728 744 -2.471065 1.649386 1.778 
744 744 -3.206220 1.002780 2.218 
760 744 -3.206683 0.373015 1.487 
776 744 -3.402402 0.429154 1.154 
792 744 -3.631809 0.571435 1.095 
808 744 -3.319529 0.158730 1.405 
824 744 -3.290600 -0.170583 1.423 
840 744 -4.403933 -0.481447 1.192 
856 744 -5.280179 0.091353 1.701 
872 744 -5.390094 0.111860 2.568 
888 744 -5.500009 0.132367 3.514 
904 744 -5.442364 -0.606749 1.801 
920 744 -4.891738 -1.930567 1.841 
936 744 -5.007513 -2.291686 1.449 
952 744 -4.164697 -2.562707 1.872 
968 744 -3.941444 -1.915880 2.357 
984 744 -3.322967 -1.383473 3.735 
1000 744 -3.409308 -2.266013 2.774 
1016 744 -3.992581 -2.842790 1.809 
1032 744 -4.721877 -2.871820 1.886 
1048 744 -5.412868 -1.887081 1.399 
1064 744 -5.910520 -0.811758 1.046 
1080 744 -6.138505 0.141811 1.822 
1096 744 -6.370205 0.415206 1.002 
1112 744 -6.020198 0.390882 1.952 
1128 744 -5.389088 -0.142865 1.747 
1144 744 -4.489170 -0.880219 1.547 
1160 744 -2.565645 -1.528710 1.194 
1176 744 0.154857 -1.622117 1.465 
1192 744 0.525818 -0.627955 1.470 
1208 744 -0.263740 0.350762 1.270 
1224 744 0.263034 0.285597 1.436 
1240 744 0.980809 -2.533101 1.022 
1256 744 1.540674 3.096830 1.230 
1272 744 -1.174813 10.437384 1.277 
8 728 -0.717406 0.233731 1.514 
24 728 -1.067766 4.120238 1.678 
40 728 1.278419 10.793045 1.268 
56 728 3.192919 17.541119 1.011 
72 728 4.248867 18.410859 1.031 
88 728 2.260934 13.884955 1.149 
104 728 -2.386990 12.326813 1.099 
120 728 -3.881141 8.109794 1.092 
136 728 -4.376440 2.324864 1.079 
152 728 -4.761084 0.994557 2.026 
168 728 -5.333759 1.134439 1.588 
184 728 -6.044324 1.483536 1.833 
200 728 -6.032419 1.250781 1.768 
216 728 -5.617972 1.360955 1.101 
232 728 -5.908579 1.516240 1.427 
248 728 -6.021225 1.524881 3.523 
264 728 -5.821647 0.971180 1.705 
280 728 -5.665274 0.812006 2.308 
296 728 -5.734612 0.551952 2.586 
312 728 -5.355768 0.322666 2.805 
328 728 -5.363595 0.233347 1.546 
344 728 -5.356100 0.992312 1.446 
360 728 -5.353574 1.680861 1.459 
376 728 -5.884229 1.831758 1.511 
392 728 -5.811561 2.268720 1.043 
408 728 -5.034901 3.447245 2.520 
424 728 -4.853857 3.523684 2.295 
440 728 -5.099542 2.584417 1.644 
456 728 -4.904388 2.354379 1.971 
472 728 -4.586412 2.450464 1.410 
488 728 -4.082040 2.494491 2.390 
504 728 -3.803530 2.400229 2.043 
520 728 -3.444868 1.757599 2.144 
536 728 -3.525769 1.053742 1.413 
552 728 -3.833773 0.554522 1.060 
568 728 -3.734162 0.613079 1.662 
584 728 -3.589168 1.005145 2.572 
600 728 -3.819610 1.418977 1.008 
616 728 -3.751241 1.897798 1.132 
632 728 -3.926531 2.002821 1.168 
648 728 -3.732472 2.192268 1.578 
664 728 -4.043002 2.995744 1.867 
680 728 -3.732600 3.373870 2.178 
696 728 -2.912680 2.654070 2.830 
712 728 -2.267077 1.931964 2.687 
728 728 -2.275437 1.202143 2.140 
744 728 -2.651635 0.540364 2.261 
760 728 -2.608235 0.397589 1.123 
776 728 -2.668133 0.524621 1.122 
792 728 -2.834959 0.652502 1.484 
808 728 -2.978558 0.368182 2.358 
824 728 -3.598815 -0.113664 3.759 
840 728 -4.942572 -0.653704 1.004 
856 728 -5.551365 -0.380785 1.002 
872 728 -5.012830 0.260305 2.929 
888 728 -5.240099 0.090144 2.847 
904 728 -5.163410 -0.791447 2.664 
920 728 -5.075446 -1.770771 2.705 
936 728 -4.771658 -2.453416 1.282 
952 728 -4.145421 -2.747150 2.283 
968 728 -3.782701 -2.322363 1.403 
984 728 -3.758474 -2.472157 3.251 
1000 728 -3.498168 -3.510045 1.682 
1016 728 -4.050226 -4.252982 1.975 
1032 728 -4.566864 -3.334070 2.070 
1048 728 -4.924000 -2.784730 2.302 
1064 728 -5.582784 -1.377525 1.753 
1080 728 -6.109312 0.261471 2.112 
1096 728 -6.050791 0.540341 1.990 
1112 728 -5.929730 0.175480 1.284 
1128 728 -5.246055 -0.665736 1.298 
1144 728 -4.969139 -1.416763 1.094 
1160 728 -3.559184 -2.704748 1.490 
1176 728 -0.757988 -2.879361 1.039 
1192 728 -0.456363 -1.288392 1.297 
1208 728 0.045446 -1.548300 1.239 
1224 728 -0.132181 -2.341124 1.050 
1240 728 -0.334952 -5.850236 1.079 
1256 728 -2.333644 2.825181 1.095 
1272 728 -5.108557 8.818494 1.077 
8 712 -2.214882 1.882541 1.185 
24 712 -2.790339 5.022866 1.195 
40 712 -0.686400 13.742608 1.011 
56 712 1.189180 19.164950 1.293 
72 712 1.867978 20.228067 1.388 
88 712 -1.925802 16.330341 1.045 
104 712 -5.218030 11.975069 1.295 
120 712 -4.661755 10.261937 1.244 
136 712 -6.061559 2.460486 1.170 
152 712 -6.100570 0.960641 1.093 
168 712 -6.075966 0.897912 1.407 
184 712 -6.892194 1.215181 1.481 
200 712 -6.326933 1.316628 2.010 
216 712 -5.688068 1.419608 1.174 
232 712 -5.908660 1.564620 1.219 
248 712 -6.528542 1.535195 2.015 
264 712 -6.262283 1.272996 1.906 
280 712 -6.553934 1.106238 1.693 
296 712 -6.745002 0.904784 1.704 
312 712 -5.921855 0.465454 1.201 
328 712 -5.384276 0.592863 1.223 
344 712 -5.581838 0.895115 2.685 
360 712 -5.519572 1.433519 1.391 
376 712 -5.690135 1.706325 3.563 
392 712 -5.331880 2.149554 3.916 
408 712 -4.823715 2.842434 1.811 
424 712 -4.557428 3.074858 2.836 
440 712 -4.630991 2.697436 2.600 
456 712 -4.862896 2.591062 1.030 
472 712 -4.845607 2.621407 1.536 
488 712 -4.383983 2.462668 2.939 
504 712 -4.219705 2.225625 2.364 
520 712 -3.878192 1.524389 2.370 
536 712 -3.845458 1.067683 3.976 
552 712 -4.255739 0.869646 2.641 
568 712 -4.103396 0.565590 1.405 
584 712 -4.046494 0.734777 2.047 
600 712 -4.190679 1.226443 2.539 
616 712 -4.284464 1.765877 1.117 
632 712 -4.328108 2.264941 1.207 
648 712 -4.834375 2.480289 2.484 
664 712 -4.679425 2.969659 3.087 
680 712 -4.524121 3.622140 2.405 
696 712 -4.012693 3.126055 2.722 
712 712 -2.986070 2.051203 3.115 
728 712 -2.783545 1.080069 1.803 
744 712 -2.659544 0.470630 1.046 
760 712 -2.308818 0.296646 1.088 
776 712 -2.215714 0.425738 2.094 
792 712 -2.569514 0.505119 2.046 
808 712 -3.063069 0.168459 2.821 
824 712 -3.940680 -0.336495 5.161 
840 712 -5.478396 -0.843132 1.956 
856 712 -5.717459 -0.545383 1.542 
872 712 -4.744037 0.171739 1.663 
888 712 -4.804909 0.062562 1.817 
904 712 -4.869752 -0.691779 2.630 
920 712 -5.294610 -1.365638 2.340 
936 712 -4.953904 -2.593890 1.660 
952 712 -4.588778 -2.825673 1.668 
968 712 -4.126501 -2.749896 1.520 
984 712 -3.765611 -3.305846 2.114 
1000 712 -3.752335 -4.503704 1.923 
1016 712 -3.889637 -4.728895 2.010 
1032 712 -4.411851 -3.796321 2.879 
1048 712 -4.616690 -3.308749 1.977 
1064 712 -5.553284 -1.291007 1.594 
1080 712 -5.823101 -0.019985 2.560 
1096 712 -5.965332 -0.059057 1.802 
1112 712 -5.664362 -0.536252 1.855 
1128 712 -5.001293 -1.210401 3.114 
1144 712 -4.708883 -2.296958 2.464 
1160 712 -4.909349 -3.456943 1.798 
1176 712 -4.332117 -3.216657 1.386 
1192 712 -3.466422 -1.633052 1.077 
1208 712 -1.253015 -3.341687 1.221 
1224 712 -0.527396 -4.967844 1.323 
1240 712 -0.277000 -3.118162 1.059 
1256 712 -5.247020 1.371888 1.384 
1272 712 -9.042300 7.199604 1.200 
8 696 -3.712357 3.531351 1.152 
24 696 -2.136780 7.404028 1.128 
40 696 -1.086866 16.148857 1.118 
56 696 -0.118422 22.849923 1.056 
72 696 0.116665 21.093364 1.033 
88 696 -1.557518 16.562929 1.044 
104 696 -7.388698 10.108647 1.139 
120 696 -5.442370 12.414079 1.111 
136 696 -6.179124 1.585875 1.093 
152 696 -6.474806 0.670821 1.652 
168 696 -7.111705 1.014104 1.357 
184 696 -7.699710 1.751362 2.996 
200 696 -7.369046 2.133891 1.791 
216 696 -5.808004 1.602654 1.583 
232 696 -6.636777 1.756655 2.311 
248 696 -6.846774 1.556723 2.439 
264 696 -6.702919 1.574813 2.652 
280 696 -6.947509 1.592662 2.111 
296 696 -6.580780 1.194954 1.191 
312 696 -5.968376 1.119376 1.008 
328 696 -5.219166 0.953196 1.076 
344 696 -5.459300 1.055284 1.480 
360 696 -5.330812 1.303070 3.274 
376 696 -5.333754 1.607398 3.461 
392 696 -4.853985 2.125098 2.508 
408 696 -4.401511 2.677886 1.021 
424 696 -4.150766 2.880987 2.918 
440 696 -4.239587 2.929963 4.257 
456 696 -4.683003 2.947806 2.471 
472 696 -4.832918 2.771745 2.467 
488 696 -4.585732 2.545378 2.615 
504 696 -4.509437 2.071696 1.683 
520 696 -4.816857 1.098463 3.642 
536 696 -4.786325 0.751731 2.476 
552 696 -4.409852 1.049511 2.659 
568 696 -4.079794 1.155158 2.098 
584 696 -4.157524 0.968869 1.419 
600 696 -4.476142 1.121458 1.812 
616 696 -4.648477 1.543117 1.625 
632 696 -4.848596 2.037800 2.026 
648 696 -5.223847 2.272818 3.283 
664 696 -5.298563 2.790177 3.813 
680 696 -5.292968 3.498895 2.010 
696 696 -5.142969 3.352179 1.877 
712 696 -4.107449 2.406499 1.361 
728 696 -3.775811 1.262560 1.202 
744 696 -3.131490 0.594485 1.388 
760 696 -2.465077 0.271219 1.867 
776 696 -2.326162 0.295754 2.105 
792 696 -2.753549 0.231849 2.558 
808 696 -3.645270 -0.212499 3.650 
824 696 -4.568770 -0.803189 3.392 
840 696 -5.324420 -1.188524 1.123 
856 696 -5.213334 -1.034179 1.312 
872 696 -4.579257 -0.268574 2.027 
888 696 -5.041073 -0.064268 1.281 
904 696 -5.522829 -0.420933 3.136 
920 696 -5.936712 -0.947997 2.945 
936 696 -5.833015 -2.170600 2.604 
952 696 -5.329032 -2.467920 1.060 
968 696 -4.947601 -2.808951 1.190 
984 696 -4.166552 -3.552642 1.851 
1000 696 -4.089806 -4.377020 1.769 
1016 696 -3.691982 -4.499225 2.091 
1032 696 -3.721050 -3.738182 1.797 
1048 696 -4.053470 -2.811148 2.639 
1064 696 -4.088642 -1.133657 2.024 
1080 696 -4.909923 -0.533384 2.048 
1096 696 -5.570238 -0.446133 1.936 
1112 696 -5.597184 -0.669353 1.589 
1128 696 -4.701941 -1.528158 3.287 
1144 696 -4.549768 -2.333175 1.893 
1160 696 -5.527374 -2.986702 2.125 
1176 696 -6.881373 -2.944376 1.727 
1192 696 -6.476481 -1.977712 2.184 
1208 696 -5.061197 -3.437464 1.148 
1224 696 -2.359285 -3.419093 1.539 
1240 696 -0.219048 -0.386089 1.006 
1256 696 -9.075146 11.296091 1.086 
1272 696 -11.676705 1.174915 1.265 
8 680 -2.028486 5.107481 1.137 
24 680 -0.733587 5.999224 1.002 
40 680 -0.100805 11.170147 1.008 
56 680 0.043484 21.781484 1.430 
72 680 -1.189299 18.682911 1.001 
88 680 -3.811757 12.805172 1.001 
104 680 -6.664686 6.887063 2.203 
120 680 -5.971677 3.021810 2.080 
136 680 -6.296690 0.711264 1.029 
152 680 -6.849041 0.381001 1.165 
168 680 -7.324580 1.063957 3.770 
184 680 -7.667830 1.939365 1.951 
200 680 -7.121167 1.723836 1.208 
216 680 -6.574504 1.508308 1.058 
232 680 -7.123666 1.876711 1.088 
248 680 -6.595211 1.669182 6.158 
264 680 -6.697382 1.721700 5.214 
280 680 -6.606492 2.339514 1.717 
296 680 -6.347298 2.263500 1.424 
312 680 -5.614832 1.907366 1.927 
328 680 -5.419570 1.715962 1.044 
344 680 -5.107564 1.553401 1.224 
360 680 -4.717200 1.525160 2.401 
376 680 -4.670414 1.919470 2.496 
392 680 -4.255690 2.509739 1.398 
408 680 -4.033777 2.894985 1.505 
424 680 -4.151345 2.999740 1.509 
440 680 -4.180711 3.208581 2.671 
456 680 -4.656810 3.126872 1.460 
472 680 -4.935013 2.841721 1.033 
488 680 -4.713790 2.355970 1.564 
504 680 -4.790833 1.498776 1.911 
520 680 -5.161013 0.903828 1.857 
536 680 -5.323348 0.862344 2.865 
552 680 -4.765117 1.552531 1.824 
568 680 -4.337638 1.600208 2.420 
584 680 -4.300915 1.363107 2.473 
600 680 -4.624160 1.198829 1.983 
616 680 -4.905134 1.234684 1.527 
632 680 -5.216245 1.759228 2.383 
648 680 -5.246663 2.120467 2.513 
664 680 -5.367992 2.543790 3.715 
680 680 -5.601469 3.282868 3.486 
696 680 -5.929963 3.543806 1.632 
712 680 -5.661552 2.940646 2.441 
728 680 -5.087642 1.921919 3.137 
744 680 -4.371972 1.270959 2.129 
760 680 -2.984031 0.470663 2.811 
776 680 -2.742660 0.174207 2.286 
792 680 -3.261555 -0.098231 2.625 
808 680 -4.051496 -0.732883 1.880 
824 680 -4.925363 -1.363345 1.806 
840 680 -5.272446 -1.521340 1.568 
856 680 -4.941432 -1.591151 1.862 
872 680 -4.868138 -1.214090 1.508 
888 680 -5.943411 -0.727133 1.188 
904 680 -6.380615 -0.915874 1.325 
920 680 -6.705645 -1.514293 1.779 
936 680 -6.578857 -2.158309 1.511 
952 680 -6.021066 -2.315217 1.046 
968 680 -5.544425 -3.697880 1.060 
984 680 -4.814999 -3.939576 1.004 
1000 680 -4.633022 -3.926143 3.270 
1016 680 -3.994121 -3.847777 1.873 
1032 680 -3.727926 -3.204030 2.217 
1048 680 -3.737894 -2.173960 1.303 
1064 680 -3.597214 -0.955718 2.080 
1080 680 -4.488085 -0.707317 1.941 
1096 680 -5.272412 -0.873701 1.300 
1112 680 -5.627540 -0.697868 1.253 
1128 680 -4.906317 -1.332116 2.105 
1144 680 -5.053320 -2.028460 1.257 
1160 680 -6.145399 -2.516462 2.222 
1176 680 -6.393523 -2.014438 2.700 
1192 680 -6.641646 -1.512415 2.173 
1208 680 -6.989420 -2.133122 1.222 
1224 680 -5.896087 -1.387710 1.039 
1240 680 -8.203512 -0.869431 1.017 
1256 680 -10.510937 -0.351151 1.150 
1272 680 -14.311110 -4.849775 1.154 
8 664 -0.496762 4.906030 1.006 
24 664 0.669607 4.594420 1.055 
40 664 0.885255 6.191438 1.117 
56 664 0.602655 7.693633 1.218 
72 664 -1.810847 8.353594 1.237 
88 664 -5.628291 6.646843 1.023 
104 664 -5.940674 3.665480 2.916 
120 664 -6.195223 1.454421 4.296 
136 664 -6.055840 0.532939 2.228 
152 664 -5.792164 1.046621 1.705 
168 664 -6.474574 1.701020 3.162 
184 664 -6.885886 1.344565 2.684 
200 664 -6.876931 1.360548 2.217 
216 664 -6.867976 1.376531 1.250 
232 664 -6.955104 1.785169 1.216 
248 664 -6.343648 1.781640 2.036 
264 664 -5.483964 1.861741 2.491 
280 664 -5.302197 2.557852 2.062 
296 664 -5.427128 2.520420 2.113 
312 664 -5.346893 2.520427 1.665 
328 664 -5.426966 1.953002 1.060 
344 664 -5.578556 1.740213 1.049 
360 664 -4.607660 1.650517 3.396 
376 664 -4.150955 1.941417 1.866 
392 664 -4.012131 2.696350 1.878 
408 664 -4.340804 2.856898 2.393 
424 664 -4.151924 3.118492 2.444 
440 664 -4.265839 3.130779 1.877 
456 664 -4.877610 3.370687 2.546 
472 664 -5.229548 2.899544 1.004 
488 664 -5.167559 2.015492 2.059 
504 664 -5.316550 1.232518 1.561 
520 664 -5.549528 0.894192 1.294 
536 664 -5.880970 1.174024 1.141 
552 664 -5.526514 1.834536 1.067 
568 664 -5.407009 2.060963 1.752 
584 664 -5.154715 1.537278 1.269 
600 664 -5.252297 1.169777 1.716 
616 664 -5.411689 1.151935 3.044 
632 664 -5.479878 1.803316 3.574 
648 664 -5.213082 2.228195 3.456 
664 664 -5.141913 2.586835 3.750 
680 664 -5.444189 3.126836 2.416 
696 664 -5.608920 3.299735 4.066 
712 664 -5.628897 2.965148 2.914 
728 664 -5.186842 2.212150 2.710 
744 664 -4.647801 1.515403 2.628 
760 664 -3.659795 0.753294 3.179 
776 664 -3.413302 0.495771 2.327 
792 664 -3.610093 0.038056 2.218 
808 664 -3.990988 -1.032772 2.087 
824 664 -4.621683 -1.483342 3.049 
840 664 -5.135120 -1.608391 3.330 
856 664 -5.447749 -2.000313 1.583 
872 664 -5.803059 -2.048149 1.263 
888 664 -6.040302 -1.986681 2.033 
904 664 -6.190535 -2.104174 1.833 
920 664 -6.550949 -2.679106 2.143 
936 664 -6.183197 -3.152995 2.747 
952 664 -5.656487 -3.470456 1.998 
968 664 -5.240878 -3.924451 2.054 
984 664 -5.419057 -4.274663 2.681 
1000 664 -4.965020 -3.872911 2.869 
1016 664 -4.462116 -3.013730 2.165 
1032 664 -4.130754 -2.407193 1.445 
1048 664 -3.875707 -1.752424 1.368 
1064 664 -3.898972 -1.308029 2.001 
1080 664 -4.495564 -1.768748 2.039 
1096 664 -5.185546 -1.809715 1.684 
1112 664 -5.617119 -1.090976 1.501 
1128 664 -5.871297 -0.677917 1.176 
1144 664 -5.933000 -1.377271 2.213 
1160 664 -6.419356 -1.835487 3.043 
1176 664 -6.324944 -1.671258 2.504 
1192 664 -6.230531 -1.507029 1.211 
1208 664 -8.185913 -0.544326 1.026 
1224 664 -10.141294 0.418377 1.064 
1240 664 -8.528357 -0.675970 1.269 
1256 664 -6.915420 -1.770318 1.021 
1272 664 -13.787228 -6.369151 1.242 
8 648 -0.581874 4.466869 1.098 
24 648 0.138361 4.353686 1.088 
40 648 0.805301 3.693118 1.164 
56 648 0.103461 1.792712 1.391 
72 648 -1.442200 2.738943 1.121 
88 648 -4.373641 2.210220 1.165 
104 648 -5.834203 1.144457 2.250 
120 648 -6.090804 1.044590 2.754 
136 648 -6.319779 1.003803 1.768 
152 648 -6.321869 1.560207 1.168 
168 648 -6.126314 1.664096 1.563 
184 648 -6.365770 1.876217 1.845 
200 648 -6.297025 1.263446 1.980 
216 648 -6.201594 1.370307 2.296 
232 648 -6.003431 1.723877 2.094 
248 648 -4.914056 2.041356 1.082 
264 648 -4.483005 2.062154 1.567 
280 648 -4.431851 2.467674 1.939 
296 648 -4.506957 2.777339 1.237 
312 648 -4.911816 2.825738 1.341 
328 648 -5.434362 2.190043 1.776 
344 648 -5.105554 2.061692 1.076 
360 648 -4.262665 1.745678 2.673 
376 648 -3.876624 1.489512 1.579 
392 648 -4.209365 2.014199 1.377 
408 648 -4.461506 2.320795 1.646 
424 648 -4.713647 2.627391 1.972 
440 648 -4.350967 3.052977 1.971 
456 648 -5.048930 3.063039 1.415 
472 648 -5.270661 2.831826 2.098 
488 648 -5.789536 1.832010 3.420 
504 648 -6.067812 1.259817 2.117 
520 648 -6.305664 1.093418 2.241 
536 648 -6.480024 1.545136 1.386 
552 648 -6.127351 2.034716 1.605 
568 648 -5.874907 2.267538 1.480 
584 648 -6.171065 1.887772 1.124 
600 648 -6.129051 1.425959 1.170 
616 648 -5.821035 1.496664 2.185 
632 648 -5.467041 1.732718 1.551 
648 648 -4.983691 2.404619 1.787 
664 648 -5.125816 2.663101 2.551 
680 648 -5.253213 3.044704 3.177 
696 648 -5.287878 3.055665 1.012 
712 648 -5.187414 2.851349 1.150 
728 648 -4.873193 2.298289 2.167 
744 648 -4.652220 1.486721 2.609 
760 648 -4.324129 0.543139 2.509 
776 648 -4.053093 0.116731 3.198 
792 648 -3.687902 -0.631770 2.472 
808 648 -3.805148 -1.247241 2.561 
824 648 -4.355267 -1.638168 2.524 
840 648 -5.548409 -1.709280 1.530 
856 648 -6.281150 -2.512334 2.158 
872 648 -6.496324 -3.043221 1.790 
888 648 -6.022665 -2.744762 2.024 
904 648 -5.786393 -2.692383 1.548 
920 648 -5.811827 -3.164634 2.586 
936 648 -5.308718 -3.451180 2.450 
952 648 -4.860743 -3.702425 2.333 
968 648 -4.937331 -4.151023 2.045 
984 648 -5.117084 -3.664838 1.110 
1000 648 -5.193759 -3.098418 1.157 
1016 648 -5.373847 -2.937291 1.450 
1032 648 -4.663810 -2.126947 1.094 
1048 648 -4.171786 -1.725438 1.632 
1064 648 -4.547036 -1.883712 2.485 
1080 648 -5.201264 -2.044075 2.635 
1096 648 -5.465033 -1.719932 2.743 
1112 648 -5.855973 -1.216945 2.075 
1128 648 -6.338164 -0.769941 1.586 
1144 648 -6.501338 -0.855985 1.805 
1160 648 -6.810082 -1.422898 2.149 
1176 648 -6.426803 -1.862731 1.520 
1192 648 -5.770580 0.081103 1.053 
1208 648 -8.002597 0.853265 317.826 
1224 648 -11.853056 1.695407 1.078 
1240 648 -8.990466 -5.637316 1.084 
1256 648 -9.409326 -6.395198 1.053 
1272 648 -15.208985 -10.828896 1.043 
8 632 0.066190 2.182155 1.132 
24 632 0.900882 1.396649 1.144 
40 632 0.725347 1.194799 1.074 
56 632 -0.433843 0.678267 1.266 
72 632 -1.255527 0.401670 1.256 
88 632 -4.201395 1.267946 1.105 
104 632 -4.853015 0.070079 1.319 
120 632 -5.986385 0.634760 1.454 
136 632 -6.583718 1.474667 2.123 
152 632 -6.272941 1.435036 1.475 
168 632 -6.329223 1.656604 1.494 
184 632 -6.547855 1.759423 1.956 
200 632 -6.249861 1.685276 2.251 
216 632 -5.733755 1.712486 3.821 
232 632 -5.109233 1.928105 1.803 
248 632 -4.425404 2.078029 1.190 
264 632 -3.961154 2.214027 2.347 
280 632 -3.825890 2.503579 1.431 
296 632 -3.877526 3.537386 1.606 
312 632 -4.186972 3.618586 1.594 
328 632 -4.705051 3.010336 1.660 
344 632 -4.828780 2.532641 1.054 
360 632 -4.043851 2.219557 1.231 
376 632 -3.712756 1.926230 1.065 
392 632 -4.241231 2.226067 1.497 
408 632 -4.550598 2.471168 2.265 
424 632 -4.734760 2.634549 3.539 
440 632 -4.731950 2.579865 3.002 
456 632 -5.177824 2.583577 2.431 
472 632 -5.675135 2.151441 2.008 
488 632 -6.533373 1.285511 2.195 
504 632 -6.926046 0.890086 1.725 
520 632 -6.697496 1.045229 2.336 
536 632 -6.390983 1.485571 2.940 
552 632 -6.132908 2.134010 3.783 
568 632 -6.010553 2.409861 2.941 
584 632 -6.415454 2.257535 2.428 
600 632 -6.278598 1.757295 1.368 
616 632 -6.230382 1.841392 1.159 
632 632 -5.666055 2.507352 1.786 
648 632 -5.353323 2.732388 2.071 
664 632 -5.446149 2.743002 2.658 
680 632 -5.415101 2.964715 2.012 
696 632 -5.356673 2.973934 1.101 
712 632 -5.253557 2.802694 1.046 
728 632 -4.889905 2.218429 2.124 
744 632 -4.877087 1.218619 2.694 
760 632 -4.833885 0.043059 1.981 
776 632 -5.249673 -0.851025 2.764 
792 632 -4.895405 -1.499133 1.172 
808 632 -4.574265 -1.873913 1.087 
824 632 -4.821968 -1.928519 1.011 
840 632 -5.534774 -2.309534 1.727 
856 632 -6.651224 -3.269846 2.296 
872 632 -6.627128 -3.979351 2.194 
888 632 -5.878938 -3.676678 3.434 
904 632 -5.549785 -3.536470 1.983 
920 632 -4.962037 -3.465918 2.724 
936 632 -4.391343 -3.662765 1.839 
952 632 -4.088508 -3.683668 1.592 
968 632 -4.187616 -3.523700 1.167 
984 632 -4.624308 -3.009946 1.294 
1000 632 -5.221981 -2.641991 2.089 
1016 632 -5.379666 -2.474998 1.025 
1032 632 -5.309907 -2.287154 1.242 
1048 632 -4.605080 -2.423447 1.603 
1064 632 -5.389041 -1.971688 2.250 
1080 632 -5.946004 -1.539107 4.435 
1096 632 -6.239052 -1.231221 5.426 