TITLE = "B00044"
VARIABLES = "x", "y", "u", "v", "sn"
ZONE T="Frame 0", I=80, J=50
8 792 0.017654 -0.271875 1.240 
24 792 -0.359199 0.056068 1.271 
40 792 -0.825162 0.227385 1.170 
56 792 -0.680671 0.598193 1.232 
72 792 -0.329064 0.864374 1.029 
88 792 0.041854 0.718327 1.238 
104 792 5.492218 -0.602096 1.053 
120 792 10.942581 -1.922519 1.412 
136 792 7.222409 -4.295551 1.077 
152 792 3.502237 -6.668583 1.066 
168 792 -2.722313 4.803193 1.011 
184 792 -2.702237 4.789031 1.445 
200 792 -2.847930 3.480825 1.437 
216 792 -2.998956 1.652515 1.062 
232 792 -3.852842 0.169120 2.268 
248 792 -5.085622 0.118143 2.276 
264 792 -6.278887 0.330572 2.885 
280 792 -6.587062 0.437265 4.508 
296 792 -6.593434 0.219299 3.726 
312 792 -6.882318 0.171598 2.931 
328 792 -6.813032 0.429322 2.847 
344 792 -6.427407 0.645112 2.461 
360 792 -6.272075 0.609748 2.253 
376 792 -6.108344 0.719323 2.321 
392 792 -5.944614 0.828899 1.940 
408 792 -6.027437 0.632194 2.086 
424 792 -6.519371 0.413481 3.309 
440 792 -7.334525 0.159349 2.900 
456 792 -7.770628 0.098840 2.847 
472 792 -7.155405 0.104134 2.472 
488 792 -6.971063 0.252531 2.170 
504 792 -7.151485 0.389442 1.598 
520 792 -7.695598 0.258129 3.117 
536 792 -7.811090 -0.088825 2.473 
552 792 -7.758114 -0.081153 3.090 
568 792 -8.062748 0.250682 2.632 
584 792 -8.034279 0.626798 4.106 
600 792 -7.205683 1.051604 2.320 
616 792 -7.106704 1.537095 2.198 
632 792 -7.139666 1.488897 1.605 
648 792 -7.172627 1.440699 1.487 
664 792 -7.286457 0.884983 2.231 
680 792 -7.310492 0.694802 2.408 
696 792 -7.118087 0.656240 3.559 
712 792 -6.805731 0.488631 12.741 
728 792 -6.749286 0.132526 8.909 
744 792 -7.067296 -0.194288 3.174 
760 792 -7.104718 -0.146881 3.103 
776 792 -7.142140 -0.099474 3.697 
792 792 -7.202293 0.120257 3.307 
808 792 -7.017859 -0.018549 2.763 
824 792 -6.912580 -0.046718 2.453 
840 792 -7.061719 -0.002895 3.737 
856 792 -7.089607 -0.185183 4.029 
872 792 -6.919667 -0.356686 3.226 
888 792 -6.705337 -0.058063 2.114 
904 792 -6.784972 -0.155813 3.102 
920 792 -6.801622 -0.319353 3.942 
936 792 -6.730916 -0.412724 3.155 
952 792 -6.748042 -0.332627 2.946 
968 792 -6.744464 -0.202539 3.838 
984 792 -6.777677 -0.360583 4.731 
1000 792 -6.265066 -0.578681 1.940 
1016 792 -5.805735 -0.826434 2.491 
1032 792 -5.724049 -0.998475 3.246 
1048 792 -5.937744 -0.949623 2.802 
1064 792 -5.884451 -0.545890 2.220 
1080 792 -5.575052 -0.383784 2.705 
1096 792 -5.326171 -0.451236 1.322 
1112 792 -8.514045 -0.424507 2.035 
1128 792 -9.640325 -0.336250 1.260 
1144 792 -0.361540 -0.058935 1.071 
1160 792 0.027797 0.180883 1.011 
1176 792 0.417133 0.420700 1.049 
1192 792 0.068830 -0.248564 1.682 
1208 792 -0.279474 -0.917828 1.209 
1224 792 -0.565804 -8.399123 1.328 
1240 792 -1.081252 -5.714317 1.122 
1256 792 -1.596700 -3.029511 1.053 
1272 792 0.000000 -0.000000 1.057 
8 776 0.532075 -1.065840 1.217 
24 776 -0.638101 0.160478 1.249 
40 776 -0.842665 0.333998 1.280 
56 776 -1.050872 0.926803 1.217 
72 776 -0.479119 0.762376 1.022 
88 776 -0.400704 0.214687 1.256 
104 776 6.120966 -1.717486 1.033 
120 776 7.964317 -2.114825 1.421 
136 776 9.807668 -2.512163 1.003 
152 776 2.700776 -0.754192 1.070 
168 776 -1.326957 5.253855 1.019 
184 776 -2.409811 4.528562 1.447 
200 776 -2.698089 3.064313 1.338 
216 776 -3.159986 0.945167 1.144 
232 776 -4.101438 -0.341940 2.378 
248 776 -5.284936 -0.301510 2.352 
264 776 -6.383534 0.046931 2.812 
280 776 -6.656878 0.165538 4.720 
296 776 -6.619107 0.101324 3.934 
312 776 -6.869554 0.120410 2.973 
328 776 -6.837222 0.450581 2.856 
344 776 -6.504994 0.719434 2.466 
360 776 -6.404524 0.743528 2.148 
376 776 -6.291348 1.028896 2.165 
392 776 -6.251445 0.805369 1.013 
408 776 -6.315658 0.580848 2.068 
424 776 -6.735463 0.357003 3.551 
440 776 -7.458087 0.133126 2.947 
456 776 -7.857953 0.118471 2.768 
472 776 -7.229304 0.146644 2.383 
488 776 -7.058634 0.278587 2.200 
504 776 -7.196793 0.393695 1.684 
520 776 -7.665480 0.299422 3.007 
536 776 -7.765941 -0.008301 2.466 
552 776 -7.769292 0.022490 3.132 
568 776 -7.847019 0.405391 2.630 
584 776 -8.039083 0.715080 4.188 
600 776 -7.454963 1.075107 2.438 
616 776 -7.527783 1.510581 2.298 
632 776 -7.604112 1.741486 1.576 
648 776 -7.489542 1.504802 1.530 
664 776 -7.655326 1.158421 2.286 
680 776 -7.492081 0.961716 2.395 
696 776 -7.250301 0.963323 3.702 
712 776 -6.893340 0.727479 12.720 
728 776 -6.831905 0.287566 10.466 
744 776 -7.095273 -0.107215 5.146 
760 776 -7.301189 -0.347920 3.317 
776 776 -7.207457 -0.052727 3.624 
792 776 -7.247212 0.179558 3.297 
808 776 -7.019402 0.056562 2.933 
824 776 -6.923732 -0.023660 2.597 
840 776 -7.060300 0.001170 3.637 
856 776 -7.081276 -0.132877 3.923 
872 776 -6.954621 -0.290175 3.240 
888 776 -6.764861 -0.004677 2.078 
904 776 -6.808157 -0.099652 3.038 
920 776 -6.796186 -0.258164 3.818 
936 776 -6.742792 -0.369143 3.238 
952 776 -6.751375 -0.294618 2.908 
968 776 -6.696422 -0.173295 3.997 
984 776 -6.614550 -0.388625 5.140 
1000 776 -6.259567 -0.548327 1.959 
1016 776 -5.853990 -0.744535 2.556 
1032 776 -5.751465 -0.878091 3.098 
1048 776 -5.919792 -0.831238 3.059 
1064 776 -5.782433 -0.465255 2.193 
1080 776 -5.328980 -0.318894 2.714 
1096 776 -5.241071 -0.402916 1.302 
1112 776 -7.148151 -0.237865 2.073 
1128 776 -6.882388 -0.235464 1.230 
1144 776 -0.679906 -0.051772 1.093 
1160 776 0.751587 0.247575 1.004 
1176 776 0.375855 0.394689 1.031 
1192 776 0.166292 2.246730 1.692 
1208 776 -0.074284 -2.335349 1.138 
1224 776 -0.522286 -7.922296 1.271 
1240 776 -1.238944 -8.446590 1.040 
1256 776 -1.824879 -2.627181 1.107 
1272 776 -2.148879 0.954010 1.092 
8 760 3.890008 0.102090 1.130 
24 760 0.963325 -1.315626 1.061 
40 760 -0.860169 0.440610 1.372 
56 760 1.406034 2.151981 1.279 
72 760 -0.629175 0.660378 1.552 
88 760 -0.001499 -0.065840 1.380 
104 760 5.161184 -1.635530 1.010 
120 760 5.343705 0.397361 1.011 
136 760 5.526225 2.430253 1.440 
152 760 1.899316 5.160200 1.748 
168 760 -1.237989 5.363579 2.147 
184 760 -2.535696 3.968816 1.747 
200 760 -3.050319 2.355032 1.209 
216 760 -3.613148 0.486965 2.709 
232 760 -4.872954 -1.020377 1.585 
248 760 -6.091314 -0.581243 2.070 
264 760 -6.263396 0.154553 1.971 
280 760 -6.375093 0.287878 2.502 
296 760 -6.534661 0.184037 2.463 
312 760 -6.786049 0.227303 2.251 
328 760 -6.832034 0.567796 2.180 
344 760 -6.680487 0.780173 2.086 
360 760 -6.600030 1.106646 2.030 
376 760 -6.936085 0.666104 1.779 
392 760 -6.931471 0.502340 1.815 
408 760 -6.814788 0.464887 4.136 
424 760 -7.185698 0.309231 2.498 
440 760 -7.647357 0.113304 2.837 
456 760 -7.534061 0.182331 3.547 
472 760 -7.237361 0.273782 2.076 
488 760 -7.085198 0.235501 2.394 
504 760 -7.197961 0.156841 3.766 
520 760 -7.419175 0.247733 2.799 
536 760 -7.587707 0.157409 2.707 
552 760 -7.564454 0.251744 4.447 
568 760 -7.525694 0.486545 3.342 
584 760 -7.613069 0.735432 3.812 
600 760 -7.557825 1.248745 2.796 
616 760 -7.913789 1.458073 1.574 
632 760 -8.120606 1.454499 2.145 
648 760 -8.173299 1.446310 2.437 
664 760 -8.024196 1.431860 2.634 
680 760 -7.755698 1.472855 3.538 
696 760 -7.166293 1.713690 2.000 
712 760 -6.784261 1.080564 5.090 
728 760 -6.765573 0.410278 4.013 
744 760 -7.028901 0.110114 3.330 
760 760 -7.273040 -0.068653 2.643 
776 760 -7.312811 0.180675 3.327 
792 760 -7.310165 0.237770 4.134 
808 760 -7.063122 0.062583 3.492 
824 760 -6.915792 -0.076701 2.847 
840 760 -7.081097 -0.021847 3.709 
856 760 -7.013429 -0.098705 3.794 
872 760 -6.861878 0.034099 3.124 
888 760 -6.825130 0.121354 2.392 
904 760 -6.777333 0.019919 3.011 
920 760 -6.701725 -0.120616 2.140 
936 760 -6.698182 -0.285797 2.272 
952 760 -6.734999 -0.224587 2.253 
968 760 -6.578956 -0.166958 10.150 
984 760 -6.406340 -0.342555 2.923 
1000 760 -6.136428 -0.496800 3.784 
1016 760 -5.907775 -0.537756 4.757 
1032 760 -5.782158 -0.600067 2.747 
1048 760 -5.794847 -0.525012 3.660 
1064 760 -5.705083 -0.246601 3.095 
1080 760 -5.207921 -0.145869 3.383 
1096 760 -5.182251 -0.195080 3.313 
1112 760 -5.782257 -0.051223 1.647 
1128 760 -4.164919 -0.048288 1.322 
1144 760 -0.953126 -0.092183 1.081 
1160 760 0.766246 0.081333 1.212 
1176 760 0.138743 -0.010150 1.047 
1192 760 0.493461 0.974678 1.042 
1208 760 1.949024 -6.314576 1.122 
1224 760 0.986460 -12.347907 1.087 
1240 760 0.023896 -18.381238 1.063 
1256 760 -1.037435 -0.751191 1.085 
1272 760 -2.261999 2.878243 1.175 
8 744 7.247942 1.270019 1.042 
24 744 4.025550 5.607537 1.035 
40 744 3.769018 7.462700 1.039 
56 744 3.862941 3.377158 1.192 
72 744 4.671966 1.018430 1.005 
88 744 -0.563302 -0.227837 1.057 
104 744 2.886613 -1.509799 1.262 
120 744 5.455092 0.558685 1.112 
136 744 3.010757 3.862685 2.912 
152 744 0.078571 5.919957 2.306 
168 744 -2.100397 5.058490 2.495 
184 744 -3.111522 2.444667 4.023 
200 744 -3.902047 0.612119 2.767 
216 744 -4.816333 -0.716147 1.017 
232 744 -5.349023 -0.988836 2.996 
248 744 -6.033389 -0.590195 3.245 
264 744 -6.108845 0.188053 3.148 
280 744 -6.435577 0.236043 2.114 
296 744 -6.670425 0.075089 2.485 
312 744 -6.757657 0.281779 2.703 
328 744 -6.834195 0.617679 2.112 
344 744 -6.855980 0.840912 2.833 
360 744 -6.900373 1.026462 3.212 
376 744 -7.263875 0.937394 2.338 
392 744 -7.472333 0.733340 1.602 
408 744 -7.199636 0.546466 1.667 
424 744 -7.186336 0.361167 3.044 
440 744 -7.329000 0.144087 4.302 
456 744 -7.210170 0.246190 3.582 
472 744 -6.889536 0.311226 2.648 
488 744 -6.817060 0.157651 3.628 
504 744 -7.208350 0.081012 4.098 
520 744 -7.211484 0.129282 3.729 
536 744 -7.454651 0.133330 5.871 
552 744 -7.362108 0.303667 3.460 
568 744 -7.091885 0.449795 3.125 
584 744 -7.077575 0.765736 4.192 
600 744 -7.779249 0.890181 1.164 
616 744 -8.521776 1.034755 2.174 
632 744 -8.555542 1.200098 3.608 
648 744 -8.349407 1.355954 1.839 
664 744 -8.116638 1.545387 4.150 
680 744 -7.788401 1.797494 2.825 
696 744 -7.216712 1.690356 1.611 
712 744 -6.645024 1.583218 3.831 
728 744 -6.787812 0.492721 1.722 
744 744 -7.007642 0.097567 1.824 
760 744 -7.107792 0.313000 2.082 
776 744 -7.369474 0.335198 3.606 
792 744 -7.244083 0.423616 3.636 
808 744 -7.031455 0.275827 3.759 
824 744 -6.860828 -0.210205 3.430 
840 744 -7.036431 -0.252935 2.557 
856 744 -6.877928 -0.140946 2.377 
872 744 -6.790038 0.024671 3.313 
888 744 -6.838792 0.219369 2.929 
904 744 -6.725839 0.229510 3.780 
920 744 -6.626095 0.038296 2.316 
936 744 -6.576266 -0.147695 2.118 
952 744 -6.521004 -0.140141 1.748 
968 744 -6.196780 -0.063261 3.445 
984 744 -6.141547 -0.250571 3.785 
1000 744 -6.118873 -0.344591 5.228 
1016 744 -5.999847 -0.289756 4.044 
1032 744 -5.956567 -0.248517 3.076 
1048 744 -5.767581 -0.112751 2.896 
1064 744 -5.738529 0.047225 3.132 
1080 744 -5.565357 0.125920 3.672 
1096 744 -5.312720 0.114064 4.761 
1112 744 -5.189773 0.192328 1.735 
1128 744 -4.180134 0.427242 1.582 
1144 744 -2.389274 0.185519 1.017 
1160 744 -0.108048 0.131816 1.112 
1176 744 0.322071 -0.446344 1.025 
1192 744 0.907813 -0.305766 1.033 
1208 744 2.538236 -2.512174 1.099 
1224 744 2.649895 -6.701843 1.027 
1240 744 1.242790 -12.874774 1.011 
1256 744 -0.249992 1.124798 1.078 
1272 744 -1.745232 1.347910 1.055 
8 728 8.499458 1.412495 1.555 
24 728 5.014558 6.588808 1.649 
40 728 4.598053 7.951790 1.049 
56 728 5.655831 3.165861 1.017 
72 728 9.973107 1.376482 1.442 
88 728 -0.087591 -0.309100 1.174 
104 728 0.612041 -1.384067 1.141 
120 728 1.184778 2.874319 1.190 
136 728 0.816195 4.457565 2.302 
152 728 -1.885477 5.515175 2.206 
168 728 -3.191032 3.903226 2.489 
184 728 -4.400565 1.242687 2.600 
200 728 -4.978924 -0.229792 3.046 
216 728 -5.547596 -0.779011 1.092 
232 728 -5.825093 -0.957295 1.136 
248 728 -6.005619 -0.500049 1.998 
264 728 -6.194349 -0.079537 1.816 
280 728 -6.534318 0.010356 2.989 
296 728 -6.844739 -0.185578 2.360 
312 728 -6.970405 -0.004886 2.479 
328 728 -7.107698 0.349513 2.181 
344 728 -7.045651 0.643521 2.981 
360 728 -7.118459 1.095356 1.895 
376 728 -7.517815 1.151118 1.251 
392 728 -7.424386 1.154436 1.492 
408 728 -6.596786 1.094311 2.212 
424 728 -6.735303 0.680201 1.876 
440 728 -6.773327 0.259420 2.115 
456 728 -6.529261 0.208313 2.536 
472 728 -6.535652 0.278336 2.659 
488 728 -6.877762 0.077748 3.324 
504 728 -7.059458 -0.013601 3.301 
520 728 -7.064129 -0.203872 1.860 
536 728 -7.249287 -0.138152 3.815 
552 728 -7.143787 0.118883 3.866 
568 728 -6.945531 0.247423 3.258 
584 728 -6.868125 0.510365 3.936 
600 728 -7.713209 0.641217 1.129 
616 728 -8.465871 0.752330 1.976 
632 728 -8.252880 0.988333 3.117 
648 728 -7.778869 1.247205 1.487 
664 728 -7.455076 1.460078 2.526 
680 728 -6.873669 1.793715 2.762 
696 728 -7.009677 1.715164 3.959 
712 728 -7.145685 1.636614 2.864 
728 728 -6.979727 0.674408 2.828 
744 728 -7.057656 0.048274 3.944 
760 728 -7.119121 0.105459 4.728 
776 728 -7.200402 0.284781 3.194 
792 728 -7.076257 0.304505 3.395 
808 728 -6.944061 0.264815 2.383 
824 728 -6.811469 -0.101281 3.092 
840 728 -6.799747 -0.094935 2.298 
856 728 -6.768916 -0.046954 4.035 
872 728 -6.772981 -0.061933 3.387 
888 728 -6.822329 0.115008 1.782 
904 728 -6.797604 0.376354 1.728 
920 728 -6.680144 0.242350 2.893 
936 728 -6.474051 0.018917 2.180 
952 728 -6.346442 -0.262994 2.693 
968 728 -6.006073 -0.061262 2.765 
984 728 -6.054581 -0.099180 2.717 
1000 728 -6.203354 -0.161473 3.518 
1016 728 -6.080262 -0.061255 3.883 
1032 728 -5.995207 0.024352 2.503 
1048 728 -5.930251 0.048956 1.905 
1064 728 -5.848134 0.157076 2.124 
1080 728 -5.649489 0.334374 4.542 
1096 728 -5.456646 0.540342 4.483 
1112 728 -5.233545 0.627426 2.707 
1128 728 -4.707285 0.938424 2.700 
1144 728 -3.777337 1.136382 1.641 
1160 728 -1.857666 0.413525 1.728 
1176 728 -0.487177 -0.268551 1.701 
1192 728 0.731064 0.004816 1.017 
1208 728 2.744468 -0.455681 1.446 
1224 728 4.757871 -0.916178 1.163 
1240 728 -1.020187 5.017661 1.760 
1256 728 -0.411439 7.451795 1.603 
1272 728 -1.228464 -0.182423 1.571 
8 712 9.750974 1.554972 1.025 
24 712 6.003566 7.570079 1.023 
40 712 5.735731 7.413088 1.018 
56 712 7.448722 2.954564 1.136 
72 712 8.232750 0.860720 1.754 
88 712 5.703888 1.083778 1.031 
104 712 0.441170 0.985838 1.226 
120 712 -0.160186 3.147242 2.007 
136 712 -2.094227 4.635521 1.942 
152 712 -4.171040 4.541269 1.805 
168 712 -4.804858 2.988594 1.519 
184 712 -5.504574 0.914151 1.549 
200 712 -6.318031 0.308817 1.907 
216 712 -6.328186 -0.337476 1.607 
232 712 -6.428770 -0.435421 1.478 
248 712 -6.290091 -0.262291 1.433 
264 712 -6.307672 -0.132382 1.315 
280 712 -6.604492 -0.289423 3.792 
296 712 -6.841836 -0.456439 4.277 
312 712 -6.933915 -0.257045 2.942 
328 712 -7.066093 0.239359 2.234 
344 712 -6.996817 0.703723 2.104 
360 712 -7.310536 1.109575 2.611 
376 712 -7.486791 1.418753 3.165 
392 712 -7.118118 1.676710 2.846 
408 712 -6.505610 1.501368 2.906 
424 712 -6.432623 0.885052 2.302 
440 712 -6.579599 0.429192 2.528 
456 712 -6.287263 0.402024 3.531 
472 712 -6.351426 0.283008 2.844 
488 712 -6.520968 0.028775 3.853 
504 712 -6.509149 -0.091830 5.254 
520 712 -6.637418 -0.333963 3.894 
536 712 -6.878461 -0.452416 2.840 
552 712 -6.814476 -0.306571 2.901 
568 712 -6.876715 0.110897 2.952 
584 712 -6.874057 0.354131 1.531 
600 712 -7.198973 0.521639 2.479 
616 712 -7.517365 0.741911 2.690 
632 712 -7.017787 0.947037 1.947 
648 712 -6.623514 1.077432 1.829 
664 712 -6.495197 1.514415 4.644 
680 712 -6.354733 1.594540 2.747 
696 712 -6.092277 1.683925 2.409 
712 712 -6.834745 1.676622 3.789 
728 712 -6.999420 0.995549 3.190 
744 712 -6.908899 0.650921 2.982 
760 712 -7.006060 0.398855 3.302 
776 712 -7.031330 0.234364 4.527 
792 712 -7.033300 0.348186 3.449 
808 712 -6.875245 0.424406 4.285 
824 712 -6.748748 0.343855 4.019 
840 712 -6.622373 0.379827 3.675 
856 712 -6.576109 0.234864 2.559 
872 712 -6.701917 -0.164267 2.442 
888 712 -6.680448 0.059031 1.618 
904 712 -6.738324 0.358378 1.636 
920 712 -6.686154 0.326518 3.151 
936 712 -6.408387 0.149824 2.105 
952 712 -6.326082 -0.095934 2.938 
968 712 -6.137753 -0.143956 2.182 
984 712 -6.073615 -0.080787 1.966 
1000 712 -6.169030 0.153181 2.869 
1016 712 -6.047636 0.217527 2.221 
1032 712 -5.881621 0.179339 2.462 
1048 712 -5.811414 0.221438 2.777 
1064 712 -5.638469 0.113257 1.835 
1080 712 -5.471736 0.357698 2.222 
1096 712 -5.389066 0.730740 3.645 
1112 712 -5.218533 1.040060 2.027 
1128 712 -4.968517 1.395941 2.603 
1144 712 -4.471486 1.633136 1.329 
1160 712 -3.590813 1.199561 1.404 
1176 712 -2.438410 0.414891 3.426 
1192 712 -0.569740 -0.360153 1.260 
1208 712 1.364024 0.233130 1.092 
1224 712 3.297787 0.826414 1.591 
1240 712 -0.268599 4.116621 1.024 
1256 712 -0.368857 6.481406 1.028 
1272 712 -0.711697 -1.712756 1.076 
8 696 6.437145 -1.759094 1.086 
24 696 3.905606 3.332132 1.038 
40 696 4.324678 3.610265 1.059 
56 696 3.881077 0.449470 1.107 
72 696 6.492393 0.344959 1.159 
88 696 3.097786 0.512887 1.216 
104 696 -0.400740 1.448399 1.303 
120 696 -1.296708 3.161917 1.614 
136 696 -3.232282 4.306244 1.712 
152 696 -4.065167 3.911667 1.644 
168 696 -5.549134 2.817105 1.062 
184 696 -5.099793 1.041000 1.298 
200 696 -5.913235 0.554500 1.226 
216 696 -6.365608 0.552709 1.741 
232 696 -6.264885 0.405366 2.135 
248 696 -6.339699 -0.038723 1.565 
264 696 -6.233326 -0.206984 1.444 
280 696 -6.414439 -0.500955 2.902 
296 696 -6.569138 -0.625888 2.311 
312 696 -6.678687 -0.161811 2.361 
328 696 -6.708480 0.244547 1.249 
344 696 -6.911295 1.010438 4.224 
360 696 -6.921963 1.301559 4.508 
376 696 -6.857813 1.685511 2.691 
392 696 -6.377752 1.969624 2.785 
408 696 -5.889910 1.843398 2.283 
424 696 -5.920364 1.335719 1.633 
440 696 -6.459226 0.785107 2.433 
456 696 -6.344070 0.680005 1.479 
472 696 -6.234071 0.378874 1.780 
488 696 -6.009395 -0.000660 2.504 
504 696 -6.008363 -0.155983 1.848 
520 696 -6.152316 -0.276033 2.594 
536 696 -6.494806 -0.383212 2.017 
552 696 -6.621132 -0.231022 2.287 
568 696 -6.770190 0.057686 2.753 
584 696 -6.763247 0.191763 5.258 
600 696 -6.557449 0.624292 2.669 
616 696 -6.899933 0.944596 2.150 
632 696 -6.252059 1.251081 2.762 
648 696 -6.242014 1.605315 2.749 
664 696 -6.203654 1.558037 2.485 
680 696 -6.116333 1.417336 3.513 
696 696 -6.288509 1.595067 2.931 
712 696 -6.617429 1.838363 3.201 
728 696 -6.763752 1.545511 3.567 
744 696 -6.793112 1.163417 2.955 
760 696 -6.871797 0.816216 2.520 
776 696 -6.942115 0.695321 2.872 
792 696 -7.038347 0.799920 2.997 
808 696 -6.920858 0.936994 2.879 
824 696 -6.770245 0.789611 2.139 
840 696 -6.417067 0.717133 2.800 
856 696 -6.448280 0.511534 4.146 
872 696 -6.492436 0.160986 3.914 
888 696 -6.328913 0.004788 3.340 
904 696 -6.401967 0.179036 5.043 
920 696 -6.540043 0.317782 3.237 
936 696 -6.487225 0.178723 2.790 
952 696 -6.069269 -0.025321 2.139 
968 696 -5.962232 -0.046443 3.626 
984 696 -6.151132 0.080343 3.919 
1000 696 -6.204246 0.278278 2.604 
1016 696 -6.104387 0.403499 3.927 
1032 696 -5.826834 0.317125 2.497 
1048 696 -5.669622 0.334869 3.337 
1064 696 -5.496527 0.250201 2.208 
1080 696 -5.282699 0.344222 2.079 
1096 696 -5.252463 0.709630 4.966 
1112 696 -5.204093 1.107927 3.733 
1128 696 -5.010448 1.501204 6.045 
1144 696 -4.802524 1.865932 1.455 
1160 696 -4.390670 1.735932 1.576 
1176 696 -3.524918 1.230080 1.178 
1192 696 -1.224653 -0.021195 2.108 
1208 696 0.085578 0.348679 1.119 
1224 696 1.395810 0.718553 1.117 
1240 696 0.079607 1.010002 1.144 
1256 696 0.307961 -0.924711 1.141 
1272 696 -0.194929 -3.243089 1.082 
8 680 -0.173593 -2.464930 1.357 
24 680 -0.464720 0.423326 1.367 
40 680 0.901388 0.813754 1.372 
56 680 1.463085 -0.206356 1.067 
72 680 0.552806 -0.543438 1.141 
88 680 -0.532946 0.039677 1.028 
104 680 -1.553316 1.392301 1.011 
120 680 -2.996637 3.633474 1.253 
136 680 -2.395109 4.193873 1.791 
152 680 -3.411087 3.779442 1.179 
168 680 -4.724693 2.667485 1.126 
184 680 -4.486234 1.472240 1.140 
200 680 -5.508439 0.800183 1.100 
216 680 -6.295581 1.263336 2.817 
232 680 -6.101000 1.246154 2.953 
248 680 -5.862548 0.235685 2.356 
264 680 -5.479410 -0.017341 3.227 
280 680 -5.706633 -0.655723 2.434 
296 680 -6.041662 -0.757284 1.984 
312 680 -6.149539 -0.223873 1.320 
328 680 -6.485497 1.264992 1.774 
344 680 -6.148733 2.121028 3.169 
360 680 -6.197257 1.921993 3.031 
376 680 -5.434548 1.862587 6.763 
392 680 -4.822657 1.775251 6.240 
408 680 -4.850587 1.836864 3.583 
424 680 -5.001069 1.373732 2.314 
440 680 -5.902284 0.659611 2.476 
456 680 -5.949458 0.244199 1.363 
472 680 -5.851783 0.159951 1.929 
488 680 -5.783526 -0.109388 3.353 
504 680 -5.802910 -0.178212 3.772 
520 680 -5.701565 -0.010183 1.412 
536 680 -6.111152 -0.314008 1.575 
552 680 -6.505736 -0.007539 2.042 
568 680 -6.520305 0.055973 2.905 
584 680 -6.406753 0.041975 3.257 
600 680 -6.231960 0.584324 1.899 
616 680 -6.410527 1.085588 3.205 
632 680 -6.490157 1.292671 2.445 
648 680 -6.272511 1.638637 2.055 
664 680 -6.444608 1.447217 3.825 
680 680 -6.596828 1.298541 3.361 
696 680 -6.762783 1.611877 2.240 
712 680 -6.870058 1.900326 4.452 
728 680 -6.979121 1.719599 2.092 
744 680 -6.942005 1.391346 1.571 
760 680 -6.896465 1.227883 1.086 
776 680 -6.731190 1.197539 1.919 
792 680 -6.767663 1.272654 2.261 
808 680 -6.714166 1.224780 2.195 
824 680 -6.531466 1.161629 2.635 
840 680 -6.389483 0.883300 3.115 
856 680 -6.523934 0.592843 4.604 
872 680 -6.438187 0.327613 4.223 
888 680 -6.290736 0.191295 2.891 
904 680 -6.269457 0.134915 2.437 
920 680 -6.420579 0.452570 2.258 
936 680 -6.486912 0.361875 2.227 
952 680 -6.041086 0.007191 3.328 
968 680 -6.127533 0.040370 4.402 
984 680 -6.281248 0.087486 2.723 
1000 680 -6.297301 0.228307 2.744 
1016 680 -6.286905 0.368919 2.200 
1032 680 -6.021756 0.357728 3.355 
1048 680 -5.700322 0.301418 2.577 
1064 680 -5.440133 0.213685 2.778 
1080 680 -5.167209 0.425298 2.501 
1096 680 -5.057571 0.475588 3.743 
1112 680 -5.038887 0.923178 11.261 
1128 680 -4.890925 1.294186 6.341 
1144 680 -4.416098 1.596803 3.317 
1160 680 -4.534823 1.768047 1.958 
1176 680 -3.583982 1.427245 1.390 
1192 680 -1.940156 0.960473 20.000 
1208 680 -0.938311 0.941525 1.344 
1224 680 -0.609990 0.575692 1.050 
1240 680 1.907132 1.522590 1.259 
1256 680 1.054305 1.826278 1.228 
1272 680 1.006771 0.600209 1.118 
8 664 -10.341845 5.139159 1.048 
24 664 -5.223654 3.580807 1.061 
40 664 -0.952554 1.935762 1.139 
56 664 1.116411 1.909926 1.004 
72 664 0.385160 1.548736 1.142 
88 664 -1.913233 1.027114 1.238 
104 664 -2.104062 2.456453 1.540 
120 664 -2.382894 3.665538 1.466 
136 664 -1.557936 4.081501 1.680 
152 664 -1.747122 3.654935 1.110 
168 664 -3.184507 3.238031 1.532 
184 664 -4.199096 2.516871 1.316 
200 664 -5.078183 1.984361 2.096 
216 664 -5.571584 1.778275 3.151 
232 664 -5.530345 1.277951 1.777 
248 664 -4.835470 0.468329 2.243 
264 664 -4.652022 0.026464 2.191 
280 664 -4.878982 -0.587098 3.856 
296 664 -5.210590 -0.312028 1.871 
312 664 -5.542198 -0.036958 1.460 
328 664 -5.906849 1.456734 1.614 
344 664 -5.984319 3.016880 2.540 
360 664 -5.747941 2.740441 2.255 
376 664 -4.651354 2.340174 11.439 
392 664 -4.430064 1.906086 3.746 
408 664 -4.219388 1.215409 1.832 
424 664 -4.941071 0.763758 2.227 
440 664 -5.579973 0.309872 1.590 
456 664 -5.674988 -0.105577 1.888 
472 664 -5.637242 -0.382047 2.194 
488 664 -5.752785 -0.420695 2.648 
504 664 -5.713856 -0.305173 2.801 
520 664 -5.726292 0.023171 1.880 
536 664 -5.920306 0.155851 1.297 
552 664 -5.976990 0.056764 1.460 
568 664 -6.163938 0.107820 2.145 
584 664 -6.026775 0.075323 2.195 
600 664 -5.974628 0.579789 2.222 
616 664 -6.227008 0.904716 4.331 
632 664 -6.138340 1.119192 3.272 
648 664 -6.043927 1.256293 2.396 
664 664 -6.506619 1.252032 3.573 
680 664 -6.697068 1.375414 1.433 
696 664 -6.785780 1.798728 2.717 
712 664 -6.982319 2.043769 2.123 
728 664 -7.005172 2.039853 3.460 
744 664 -6.604300 1.917380 1.347 
760 664 -6.334281 1.702695 1.558 
776 664 -6.208217 1.755352 2.991 
792 664 -5.956033 1.856946 1.305 
808 664 -5.808809 1.909666 1.394 
824 664 -5.751764 1.875104 2.289 
840 664 -6.016851 1.056796 2.291 
856 664 -6.340910 0.553963 3.998 
872 664 -6.471234 0.374853 6.933 
888 664 -6.479958 0.278528 4.263 
904 664 -6.490002 0.374691 3.439 
920 664 -6.450608 0.616221 2.830 
936 664 -6.296218 0.420893 3.856 
952 664 -6.190501 0.206242 2.655 
968 664 -6.285072 0.186153 5.769 
984 664 -6.305190 0.200359 3.373 
1000 664 -6.195329 0.218385 1.993 
1016 664 -6.085522 0.293620 2.937 
1032 664 -6.027185 0.348239 1.746 
1048 664 -5.881184 0.330749 2.535 
1064 664 -5.413202 0.431253 2.164 
1080 664 -5.051720 0.506374 2.473 
1096 664 -4.721755 0.568017 1.614 
1112 664 -4.681589 0.871118 4.763 
1128 664 -4.523236 1.185289 4.943 
1144 664 -4.156372 1.421738 2.584 
1160 664 -4.210909 1.513824 1.637 
1176 664 -3.919944 1.516360 1.994 
1192 664 -2.190701 1.573857 1.703 
1208 664 -0.388490 1.989661 1.620 
1224 664 2.597025 3.615179 1.187 
1240 664 5.636462 5.787589 1.046 
1256 664 4.248122 7.804274 1.119 
1272 664 2.208470 4.443507 1.044 
8 648 -12.947152 6.704853 1.404 
24 648 -4.409967 5.146651 1.282 
40 648 -0.556544 1.667869 1.197 
56 648 0.697929 4.078033 1.168 
72 648 1.033790 4.117572 1.038 
88 648 -1.974137 2.880999 1.484 
104 648 -2.240408 3.592457 1.548 
120 648 -2.561027 4.406104 1.793 
136 648 -1.709244 4.233457 1.506 
152 648 -2.021258 4.178996 1.501 
168 648 -2.333271 4.124536 1.336 
184 648 -3.742859 3.458685 1.900 
200 648 -4.955916 3.051878 1.733 
216 648 -4.847586 2.293213 1.380 
232 648 -5.004173 1.089449 1.000 
248 648 -4.102943 0.379833 1.217 
264 648 -3.870545 -0.039431 2.536 
280 648 -4.370763 -0.494188 4.154 
296 648 -4.431258 -0.465216 1.521 
312 648 -4.491752 -0.436243 1.063 
328 648 -4.560333 0.915388 2.409 
344 648 -5.032408 2.428876 2.522 
360 648 -5.298625 3.558890 1.878 
376 648 -4.844240 3.115891 2.433 
392 648 -4.037472 2.036920 1.842 
408 648 -4.439243 1.057235 3.047 
424 648 -4.679449 0.470657 3.075 
440 648 -5.496039 0.064875 1.302 
456 648 -5.722543 -0.197374 1.397 
472 648 -5.662560 -0.435191 2.438 
488 648 -5.533690 -0.595972 3.025 
504 648 -5.426622 -0.482893 2.095 
520 648 -5.615735 -0.133960 1.714 
536 648 -5.706862 -0.093330 1.069 
552 648 -5.855411 -0.050924 1.156 
568 648 -5.900433 0.101040 1.351 
584 648 -5.935258 0.450365 1.155 
600 648 -5.832768 0.934797 1.854 
616 648 -5.701236 0.961125 1.791 
632 648 -5.667215 1.062813 2.487 
648 648 -5.807070 1.133367 2.458 
664 648 -6.286569 1.134976 2.959 
680 648 -6.378022 1.449376 1.126 
696 648 -6.360218 2.008808 1.429 
712 648 -6.532529 2.282124 2.653 
728 648 -6.472846 2.560903 2.839 
744 648 -6.184379 2.487968 3.358 
760 648 -5.602571 2.079009 2.019 
776 648 -5.584737 2.215843 1.953 
792 648 -5.480108 2.496620 2.386 
808 648 -5.001592 2.904106 2.632 
824 648 -5.026114 2.557584 2.261 
840 648 -5.374375 1.643646 1.146 
856 648 -6.011316 0.612800 3.421 
872 648 -6.258911 0.422404 2.822 
888 648 -6.368155 0.259092 2.240 
904 648 -6.441297 0.434248 2.902 
920 648 -6.379180 0.503164 3.537 
936 648 -6.241007 0.377690 3.450 
952 648 -6.213068 0.232390 3.513 
968 648 -6.234090 0.254925 5.162 
984 648 -6.238192 0.461455 2.568 
1000 648 -6.076140 0.320913 1.978 
1016 648 -6.062029 0.343041 2.680 
1032 648 -6.017278 0.363986 2.132 
1048 648 -5.891433 0.336358 3.002 
1064 648 -5.512862 0.566064 4.406 
1080 648 -5.189404 0.775459 1.903 
1096 648 -4.846445 0.681389 1.424 
1112 648 -4.820819 1.238956 1.218 
1128 648 -4.531116 1.667461 1.376 
1144 648 -4.185930 1.642225 2.887 
1160 648 -4.141615 1.591294 2.375 
1176 648 -4.066861 1.548793 4.593 
1192 648 -3.057975 1.755553 1.855 
1208 648 -0.197256 2.230914 1.616 
1224 648 3.769065 4.278433 1.122 
1240 648 7.433747 6.588270 1.066 
1256 648 5.170870 6.928555 1.028 
1272 648 3.019606 5.418314 1.015 
8 632 -12.423457 4.961929 1.033 
24 632 -0.329033 1.280054 1.023 
40 632 -0.160533 1.399976 1.023 
56 632 0.279446 6.246141 1.210 
72 632 -0.704239 5.235999 1.064 
88 632 -1.687924 4.225857 2.715 
104 632 -2.161809 4.113325 2.567 
120 632 -2.566260 4.289450 1.051 
136 632 -2.421260 4.149872 2.906 
152 632 -2.353761 4.214628 1.194 
168 632 -2.286262 4.279383 1.892 
184 632 -2.977378 3.177820 2.255 
200 632 -3.781396 2.961415 1.413 
216 632 -3.960476 2.058731 1.090 
232 632 -4.284736 1.250234 1.126 
248 632 -3.688998 0.360248 1.192 
264 632 -3.495311 -0.478071 1.745 
280 632 -3.809392 -0.651454 4.465 
296 632 -3.704527 -0.863964 1.151 
312 632 -3.577899 -0.565870 1.960 
328 632 -3.848254 0.187687 2.593 
344 632 -4.422323 1.521458 3.722 
360 632 -4.952828 3.238500 3.773 
376 632 -5.036283 3.428417 2.076 
392 632 -5.099672 2.510139 1.910 
408 632 -4.892504 0.992378 2.009 
424 632 -5.071587 0.139072 1.879 
440 632 -5.461937 -0.270021 3.035 
456 632 -5.449425 -0.343784 1.539 
472 632 -5.534081 -0.435214 2.582 
488 632 -5.387274 -0.680643 4.037 
504 632 -5.155029 -0.651220 2.860 
520 632 -5.262486 -0.367743 1.295 
536 632 -5.577043 -0.516172 1.144 
552 632 -5.738525 -0.246395 1.753 
568 632 -5.851663 0.074936 1.681 
584 632 -5.915854 0.785069 1.084 
600 632 -5.802753 0.889052 1.221 
616 632 -5.543213 0.863112 1.023 
632 632 -5.434970 0.960872 1.372 
648 632 -5.568099 1.018117 2.577 
664 632 -5.991350 0.851102 3.615 
680 632 -5.950154 1.390385 1.220 
696 632 -5.896186 1.967666 2.092 
712 632 -6.097276 2.401982 2.751 
728 632 -6.086462 2.609933 1.593 
744 632 -5.805134 2.451012 1.824 
760 632 -5.205391 1.869224 2.111 
776 632 -5.169653 2.007422 2.360 
792 632 -5.414007 2.448622 3.317 
808 632 -5.045963 2.943260 3.745 
824 632 -5.435056 2.101107 2.409 
840 632 -5.703543 1.503129 1.387 
856 632 -5.509015 0.509777 1.476 
872 632 -5.904052 0.319939 1.104 
888 632 -6.227696 0.276003 1.137 
904 632 -6.523118 0.302604 2.183 
920 632 -6.413063 0.277275 2.546 
936 632 -6.377157 0.298755 3.664 
952 632 -6.516334 0.305058 1.918 
968 632 -6.274892 0.390273 2.492 
984 632 -6.271784 0.605998 3.111 
1000 632 -6.257458 0.454923 3.257 
1016 632 -6.068837 0.412920 2.888 
1032 632 -5.985774 0.464110 3.864 
1048 632 -5.825435 0.439003 24.232 
1064 632 -5.501951 0.347317 2.264 
1080 632 -5.285544 0.530990 2.254 
1096 632 -5.110900 0.807023 1.032 
1112 632 -4.947461 1.261614 1.085 
1128 632 -4.676961 1.257361 1.821 
1144 632 -4.456358 1.562204 2.341 