TITLE = "B00008"
VARIABLES = "x", "y", "u", "v", "sn"
ZONE T="Frame 0", I=80, J=50
8 792 0.000000 -0.000000 1.013 
24 792 0.000000 -0.000000 1.040 
40 792 7.418656 3.064126 1.054 
56 792 6.091103 2.805384 1.983 
72 792 4.763551 2.546641 1.056 
88 792 3.435998 2.287899 1.227 
104 792 2.108445 2.029157 1.189 
120 792 0.780893 1.770415 1.195 
136 792 0.773698 3.292800 1.831 
152 792 0.535535 -1.613458 1.118 
168 792 0.395006 -1.540501 1.026 
184 792 0.254478 -1.467545 1.063 
200 792 -2.545316 0.891838 1.092 
216 792 -4.251217 3.012759 1.855 
232 792 -4.278327 2.718021 1.699 
248 792 -4.105762 2.619434 1.976 
264 792 -3.858423 3.212090 1.615 
280 792 -3.507550 3.524034 2.072 
296 792 -3.773578 3.051424 5.025 
312 792 -3.663267 3.109302 1.743 
328 792 -3.486798 3.105904 1.232 
344 792 -3.310329 3.102506 2.568 
360 792 -4.098329 2.359782 1.817 
376 792 -5.358098 2.119314 2.271 
392 792 -5.209401 2.676671 2.646 
408 792 -4.106365 3.316838 2.668 
424 792 -3.712322 3.803570 1.878 
440 792 -3.503813 3.848535 1.489 
456 792 -3.395802 3.530232 1.494 
472 792 -3.451252 3.226549 2.133 
488 792 -3.461567 2.875850 1.982 
504 792 -3.383129 2.806371 2.164 
520 792 -3.288899 2.751923 1.875 
536 792 -3.018491 2.573899 2.397 
552 792 -3.447325 2.216179 2.608 
568 792 -4.123477 1.617625 2.239 
584 792 -4.672579 1.006893 2.202 
600 792 -5.403143 0.930040 2.612 
616 792 -5.916133 0.679529 2.831 
632 792 -6.106982 0.473379 3.562 
648 792 -6.031356 0.511505 3.557 
664 792 -6.087808 0.467371 2.871 
680 792 -6.288785 0.185383 2.488 
696 792 -6.665407 0.154260 1.931 
712 792 -6.901800 0.170754 1.987 
728 792 -6.704012 -0.135197 3.166 
744 792 -6.482310 -0.461024 3.670 
760 792 -6.256189 -0.267761 2.263 
776 792 -6.486497 0.051999 2.438 
792 792 -6.466101 -0.242674 2.324 
808 792 -6.445704 -0.537347 4.338 
824 792 -6.198507 -0.913721 3.964 
840 792 -6.449390 -1.085953 3.881 
856 792 -5.920039 -1.316942 3.110 
872 792 -5.223399 -1.175304 2.086 
888 792 -4.922518 -0.340431 2.623 
904 792 -4.621637 0.494441 1.585 
920 792 -3.551765 0.497597 1.280 
936 792 -3.679586 -0.128095 2.605 
952 792 -5.204949 -0.618935 2.551 
968 792 -5.898502 -1.282407 1.313 
984 792 -5.775715 -1.460784 1.472 
1000 792 -5.685392 -1.397858 1.385 
1016 792 -5.661110 -1.018079 2.955 
1032 792 -5.669495 -0.747259 3.750 
1048 792 -5.803377 -0.392810 1.886 
1064 792 -5.948260 -0.262043 2.050 
1080 792 -6.054678 -0.483023 1.100 
1096 792 -5.796220 0.234814 1.574 
1112 792 -5.537762 0.952652 1.394 
1128 792 -5.279304 1.670489 1.063 
1144 792 -5.031970 1.416033 1.135 
1160 792 -5.038171 1.159679 1.151 
1176 792 -4.670654 -0.944020 1.296 
1192 792 -4.149050 -2.256078 1.191 
1208 792 -4.472220 -3.236775 1.112 
1224 792 -4.795390 -4.217472 1.025 
1240 792 0.000000 -0.000000 1.011 
1256 792 0.000000 -0.000000 1.232 
1272 792 0.000000 -0.000000 1.035 
8 776 6.863713 10.356859 1.016 
24 776 7.907816 8.386495 1.066 
40 776 8.941802 -2.490464 1.002 
56 776 9.347739 1.005173 2.059 
72 776 3.616942 0.317387 1.014 
88 776 1.629869 0.894842 1.323 
104 776 -0.357204 1.472298 1.242 
120 776 0.796691 3.003070 1.245 
136 776 0.702384 3.922581 1.811 
152 776 0.069135 -1.547810 1.151 
168 776 0.293402 -0.523517 1.020 
184 776 -1.202431 -1.173248 1.080 
200 776 -3.992621 2.048989 1.041 
216 776 -4.527300 3.333738 1.295 
232 776 -4.395932 2.926335 1.737 
248 776 -4.111905 2.783532 2.033 
264 776 -3.903038 3.252176 1.633 
280 776 -3.463628 3.347284 2.232 
296 776 -3.754019 2.979748 4.883 
312 776 -3.809944 3.015068 1.667 
328 776 -3.624056 3.193447 1.165 
344 776 -3.605328 2.900388 2.674 
360 776 -4.217511 2.006278 1.771 
376 776 -5.318949 1.809145 2.123 
392 776 -5.274823 2.485132 2.632 
408 776 -4.345577 3.211048 2.936 
424 776 -3.969004 3.602630 1.954 
440 776 -3.739660 3.605743 1.552 
456 776 -3.576158 3.390036 1.429 
472 776 -3.522293 3.208760 2.208 
488 776 -3.526848 2.918767 2.062 
504 776 -3.483799 2.824759 2.171 
520 776 -3.315589 2.741452 1.795 
536 776 -3.101537 2.606260 2.214 
552 776 -3.564479 2.278321 2.854 
568 776 -4.222123 1.740015 2.191 
584 776 -4.695760 1.143912 2.247 
600 776 -5.420450 0.987295 2.292 
616 776 -5.961625 0.849978 2.498 
632 776 -5.937760 0.348311 3.299 
648 776 -5.895861 0.374063 3.722 
664 776 -6.004843 0.339365 2.829 
680 776 -6.285846 0.080610 2.419 
696 776 -6.705870 0.092993 1.928 
712 776 -6.923800 0.145651 1.938 
728 776 -6.718056 -0.085759 3.378 
744 776 -6.516168 -0.374858 3.240 
760 776 -6.275500 -0.173451 2.417 
776 776 -6.456122 0.121445 2.301 
792 776 -6.657913 0.033547 2.413 
808 776 -6.385753 -0.286841 4.221 
824 776 -6.143631 -0.650453 3.971 
840 776 -6.364692 -0.836662 3.994 
856 776 -5.771715 -1.051797 3.308 
872 776 -5.019556 -0.904376 2.084 
888 776 -5.433793 0.116434 2.417 
904 776 -4.787162 1.007003 1.781 
920 776 -3.486245 0.731349 1.344 
936 776 -3.573845 0.078576 2.392 
952 776 -5.020133 -0.392927 2.718 
968 776 -5.649946 -1.065483 1.329 
984 776 -5.493621 -1.270843 1.488 
1000 776 -5.446853 -1.240500 1.430 
1016 776 -5.412650 -0.924254 2.875 
1032 776 -5.372848 -0.711044 3.564 
1048 776 -5.574756 -0.458592 1.860 
1064 776 -5.826398 -0.404854 1.976 
1080 776 -6.060988 -0.540861 1.038 
1096 776 -6.028500 -0.568525 1.727 
1112 776 -5.715378 0.070889 1.450 
1128 776 -5.597166 2.289480 1.089 
1144 776 -5.448536 3.061165 1.102 
1160 776 -5.488483 3.457126 1.168 
1176 776 -7.183179 6.563422 1.256 
1192 776 -7.953870 1.047965 1.144 
1208 776 -9.020511 -1.513301 1.085 
1224 776 -8.342642 -4.820975 1.008 
1240 776 -16.605402 -8.182609 1.213 
1256 776 0.000000 -0.000000 1.244 
1272 776 0.000000 -0.000000 1.078 
8 760 13.266758 -9.995502 1.341 
24 760 12.047865 -10.313180 1.328 
40 760 10.464948 -8.045055 1.007 
56 760 6.982111 -0.863900 1.013 
72 760 2.791294 0.570679 1.109 
88 760 1.272667 -0.466767 1.142 
104 760 -0.245960 -1.504213 1.261 
120 760 -1.302815 0.570043 1.133 
136 760 -1.438501 -2.588899 1.019 
152 760 -2.519170 1.883465 1.063 
168 760 -3.945854 2.605573 1.292 
184 760 -5.369177 2.938776 1.008 
200 760 -5.439927 3.206140 2.876 
216 760 -4.828178 3.187337 1.141 
232 760 -4.463604 3.096920 1.560 
248 760 -4.250891 3.013253 4.203 
264 760 -3.926060 3.140131 1.879 
280 760 -3.419706 3.170534 1.926 
296 760 -3.526770 2.921878 1.638 
312 760 -4.103413 2.664300 1.433 
328 760 -4.121167 2.949050 1.085 
344 760 -3.561215 2.561278 1.514 
360 760 -3.931129 1.454284 1.470 
376 760 -4.794776 1.386129 1.720 
392 760 -4.677720 2.352935 2.354 
408 760 -4.305575 3.130226 2.011 
424 760 -4.147512 3.301067 2.400 
440 760 -3.724575 3.239376 3.368 
456 760 -3.254526 3.276245 1.587 
472 760 -3.248657 3.251698 3.116 
488 760 -3.574217 3.305073 2.755 
504 760 -3.585157 2.916665 2.988 
520 760 -3.590047 2.699255 1.303 
536 760 -3.328716 2.730668 1.417 
552 760 -3.734181 2.499120 1.664 
568 760 -4.640326 2.214793 1.241 
584 760 -4.989084 1.796210 1.324 
600 760 -5.306685 1.243044 1.107 
616 760 -5.661191 0.834395 1.746 
632 760 -5.346562 0.210577 4.378 
648 760 -5.389223 0.058702 3.362 
664 760 -5.678091 0.061533 2.686 
680 760 -6.238048 -0.103145 4.523 
696 760 -6.872211 0.131970 2.545 
712 760 -7.047242 0.253951 2.033 
728 760 -6.790506 0.157065 1.026 
744 760 -6.487456 -0.203808 1.453 
760 760 -6.269848 -0.138209 2.161 
776 760 -6.436245 0.138061 1.486 
792 760 -6.607375 0.107961 1.519 
808 760 -6.253892 -0.303338 2.710 
824 760 -6.324777 -0.420657 1.033 
840 760 -6.342940 -0.598848 2.763 
856 760 -5.925188 -0.686942 2.238 
872 760 -5.191744 -0.468628 2.565 
888 760 -5.095476 0.363143 1.197 
904 760 -4.804453 1.524528 2.415 
920 760 -3.535137 1.315162 1.594 
936 760 -3.994029 0.313676 2.232 
952 760 -4.837781 -0.086350 2.257 
968 760 -5.443801 -0.835876 1.899 
984 760 -5.176784 -1.071705 1.624 
1000 760 -4.841374 -0.664996 2.253 
1016 760 -4.748680 -0.535063 2.651 
1032 760 -4.724991 -0.478401 3.155 
1048 760 -5.211763 -0.597617 3.164 
1064 760 -5.555293 -0.654031 1.570 
1080 760 -5.986334 -0.350440 2.115 
1096 760 -5.872122 -0.353790 3.298 
1112 760 -5.648022 0.118553 2.246 
1128 760 -5.915027 2.908470 1.205 
1144 760 -5.865101 4.706296 1.223 
1160 760 -5.938795 5.754572 1.192 
1176 760 -7.868754 4.656830 1.245 
1192 760 -9.633970 2.299204 1.382 
1208 760 -9.002663 -0.481995 1.352 
1224 760 -9.814468 -6.880727 1.032 
1240 760 -12.246696 -6.591190 1.098 
1256 760 -11.363252 -8.704977 1.075 
1272 760 -17.680604 -5.435287 1.022 
8 744 19.640480 -13.290598 1.019 
24 744 14.886484 -11.167461 1.021 
40 744 10.782614 -9.902542 1.070 
56 744 3.746955 -5.152414 1.081 
72 744 -0.215592 -2.112699 1.249 
88 744 -0.321160 -0.810535 1.103 
104 744 -0.225012 -0.921701 1.195 
120 744 -3.402322 -1.862984 1.331 
136 744 -3.598269 0.006249 1.010 
152 744 -5.265409 2.701861 1.059 
168 744 -5.697902 2.922354 1.443 
184 744 -5.831389 2.887694 1.306 
200 744 -5.681682 2.994457 2.842 
216 744 -5.248922 2.982547 2.242 
232 744 -4.561790 3.236190 1.726 
248 744 -4.197806 3.463569 2.090 
264 744 -4.136647 3.313581 2.006 
280 744 -3.679989 2.977183 1.587 
296 744 -4.210765 2.379508 1.396 
312 744 -4.741905 2.226872 1.160 
328 744 -4.618278 2.704654 1.045 
344 744 -3.517102 2.222167 1.211 
360 744 -3.644747 0.902291 3.592 
376 744 -3.628255 0.781014 6.057 
392 744 -4.100103 2.233012 3.685 
408 744 -4.044466 2.852977 2.204 
424 744 -3.775111 2.912723 2.723 
440 744 -3.582746 2.811671 2.786 
456 744 -3.435829 2.902191 1.703 
472 744 -3.435747 3.119965 2.136 
488 744 -3.564929 3.268952 2.131 
504 744 -3.696301 2.964355 2.356 
520 744 -3.564931 2.760849 2.701 
536 744 -3.609327 2.672101 1.980 
552 744 -4.390184 2.428397 1.501 
568 744 -4.535685 2.411058 1.359 
584 744 -4.855751 2.077074 1.406 
600 744 -5.103346 1.495354 1.103 
616 744 -5.303565 0.930737 1.887 
632 744 -5.004551 0.226214 3.907 
648 744 -5.173741 -0.054066 2.673 
664 744 -5.550398 -0.213037 2.161 
680 744 -6.081925 -0.369797 2.371 
696 744 -6.679018 -0.056398 2.201 
712 744 -6.579257 0.302634 1.457 
728 744 -6.570771 0.348639 1.279 
744 744 -6.522824 -0.076980 1.560 
760 744 -6.465602 -0.322549 3.699 
776 744 -6.650327 -0.232097 2.262 
792 744 -6.573250 -0.166332 1.540 
808 744 -6.284536 0.030881 2.314 
824 744 -6.358588 -0.112844 2.269 
840 744 -6.340953 -0.392953 3.869 
856 744 -6.039968 -0.502188 2.153 
872 744 -5.541060 -0.216027 2.564 
888 744 -5.573860 0.710022 1.091 
904 744 -5.354159 1.775943 1.436 
920 744 -4.653318 1.359217 2.045 
936 744 -4.414214 0.548776 1.441 
952 744 -5.004699 0.336507 1.792 
968 744 -5.006113 -0.473415 1.826 
984 744 -4.627115 -0.853308 1.691 
1000 744 -4.810733 -0.909158 3.115 
1016 744 -4.793881 -0.868833 3.076 
1032 744 -4.443094 -0.647901 2.813 
1048 744 -4.895658 -0.672526 2.446 
1064 744 -5.627007 -0.597582 2.479 
1080 744 -6.010100 -0.109536 2.684 
1096 744 -5.835813 -0.321671 2.640 
1112 744 -5.746501 -0.586398 2.554 
1128 744 -5.701787 0.035892 1.367 
1144 744 -6.113617 1.529909 1.414 
1160 744 -5.662624 0.829802 1.002 
1176 744 -5.211631 0.129696 1.281 
1192 744 -5.077633 0.445905 1.145 
1208 744 -8.984815 0.549310 1.094 
1224 744 -7.095655 -1.281534 1.013 
1240 744 -7.181156 -2.943802 1.144 
1256 744 1.865205 -5.732145 1.182 
1272 744 5.232382 -2.937895 1.234 
8 728 18.074325 -12.745550 1.350 
24 728 17.725104 -12.021743 1.409 
40 728 7.843349 -9.749835 1.073 
56 728 -2.242804 -5.820991 1.353 
72 728 -2.745945 -2.339539 1.200 
88 728 0.736202 0.959355 1.168 
104 728 4.218349 4.258248 1.033 
120 728 -5.165136 3.269901 1.920 
136 728 -5.758038 2.601398 2.192 
152 728 -5.644655 2.997020 1.706 
168 728 -5.670215 2.917820 1.872 
184 728 -5.768401 2.865487 3.644 
200 728 -6.028692 2.821615 2.696 
216 728 -5.744461 2.839677 2.877 
232 728 -5.032347 2.931329 1.566 
248 728 -4.312047 2.960693 1.018 
264 728 -3.924528 2.928549 2.435 
280 728 -4.293395 2.378990 1.789 
296 728 -5.013449 1.749579 2.444 
312 728 -5.378800 1.775117 1.728 
328 728 -4.834249 1.694287 1.817 
344 728 -3.653839 1.725812 2.313 
360 728 -2.966547 1.201501 2.248 
376 728 -2.370279 1.318008 1.313 
392 728 -3.087818 2.337905 1.370 
408 728 -3.472056 2.973441 2.135 
424 728 -3.460323 2.923467 4.233 
440 728 -3.481990 2.737257 4.618 
456 728 -3.708122 2.866602 2.292 
472 728 -3.941082 3.067421 1.416 
488 728 -3.711168 2.870618 1.197 
504 728 -3.550241 2.922344 1.498 
520 728 -3.226330 2.814465 2.434 
536 728 -3.503955 2.351821 1.456 
552 728 -3.958232 2.416051 1.212 
568 728 -4.126307 2.440260 1.854 
584 728 -4.472430 1.975300 3.113 
600 728 -4.615144 1.423612 2.521 
616 728 -4.688262 0.718157 2.798 
632 728 -4.943774 0.313604 3.771 
648 728 -4.974954 0.283886 5.134 
664 728 -5.059930 -0.005028 2.962 
680 728 -5.540862 -0.301536 2.203 
696 728 -6.154452 -0.312726 1.304 
712 728 -5.934604 0.066312 1.594 
728 728 -6.163348 -0.037569 3.714 
744 728 -6.484655 -0.279487 6.905 
760 728 -6.641460 -0.432989 3.030 
776 728 -6.655254 -0.284838 2.703 
792 728 -6.423822 -0.067503 1.994 
808 728 -6.079635 0.111344 2.325 
824 728 -6.235819 -0.055857 2.923 
840 728 -6.306676 -0.396859 2.221 
856 728 -6.142487 -0.600663 1.695 
872 728 -6.191813 -0.239857 2.705 
888 728 -6.347364 0.823150 2.374 
904 728 -6.148013 1.590347 2.744 
920 728 -5.918028 0.969285 2.553 
936 728 -5.191924 0.666811 1.709 
952 728 -5.265123 0.290400 2.790 
968 728 -5.081070 -0.405466 1.539 
984 728 -4.937235 -0.908602 1.235 
1000 728 -4.780093 -1.153319 1.772 
1016 728 -4.839083 -1.202603 1.451 
1032 728 -4.756866 -1.156101 2.424 
1048 728 -5.106541 -0.973858 4.019 
1064 728 -5.820289 -0.659891 3.231 
1080 728 -6.111564 -0.249789 1.336 
1096 728 -5.766306 -0.018955 2.850 
1112 728 -5.787433 -0.267861 1.984 
1128 728 -5.906450 -0.556308 2.043 
1144 728 -5.936869 -0.854137 1.845 
1160 728 -5.219685 -1.162830 1.075 
1176 728 -4.502501 -1.471522 1.265 
1192 728 -2.453894 0.248980 1.261 
1208 728 -5.363697 0.013282 1.019 
1224 728 -5.375329 -1.189541 1.129 
1240 728 -2.115616 0.703585 1.196 
1256 728 -0.508123 -10.892636 1.048 
1272 728 7.926118 -6.015074 1.214 
8 712 16.508170 -12.200501 1.236 
24 712 12.264531 -10.126295 1.110 
40 712 3.978486 -8.685868 1.333 
56 712 -2.417813 -4.863634 1.231 
72 712 -4.211297 -1.792378 1.051 
88 712 -0.448907 2.204814 1.330 
104 712 3.313483 6.202005 1.133 
120 712 -6.500207 4.500555 1.770 
136 712 -6.201338 2.687386 1.963 
152 712 -5.607523 2.677104 1.439 
168 712 -5.642529 2.913287 1.771 
184 712 -5.705412 2.843280 2.790 
200 712 -5.870025 2.757700 2.525 
216 712 -6.017412 2.996575 2.111 
232 712 -5.398371 2.923481 1.188 
248 712 -4.772142 2.727094 1.517 
264 712 -4.526272 2.405652 1.075 
280 712 -4.987804 1.822568 2.340 
296 712 -4.939493 1.543021 5.301 
312 712 -5.218600 1.417815 3.585 
328 712 -4.219486 1.870590 1.671 
344 712 -3.067314 1.854428 2.030 
360 712 -2.088063 1.856322 1.732 
376 712 -1.517224 2.131353 2.294 
392 712 -2.109831 3.067865 2.175 
408 712 -3.037474 3.281915 2.664 
424 712 -3.171409 3.025216 2.575 
440 712 -3.313028 3.116507 2.346 
456 712 -3.875768 3.096601 2.470 
472 712 -3.842987 2.805187 1.759 
488 712 -3.810206 2.513774 1.244 
504 712 -3.706735 3.079369 1.297 
520 712 -3.322398 2.942441 1.945 
536 712 -3.461324 2.280826 1.169 
552 712 -3.293828 2.219145 1.168 
568 712 -3.172124 2.317016 2.643 
584 712 -3.747646 1.945290 5.102 
600 712 -4.099888 1.443119 2.001 
616 712 -4.295245 0.819178 3.912 
632 712 -4.651859 0.377777 3.685 
648 712 -4.742470 0.549556 1.762 
664 712 -5.032072 0.344661 3.569 
680 712 -5.472940 -0.091871 10.199 
696 712 -5.687998 -0.208237 1.190 
712 712 -5.766372 -0.166033 2.888 
728 712 -6.171445 -0.423046 3.721 
744 712 -6.437365 -0.595807 3.765 
760 712 -6.505496 -0.561855 3.582 
776 712 -6.594974 -0.388855 2.242 
792 712 -6.459305 -0.248379 2.057 
808 712 -6.252317 -0.030961 1.392 
824 712 -6.181971 -0.177886 2.194 
840 712 -5.967150 -0.494162 2.984 
856 712 -6.040607 -0.544041 3.233 
872 712 -6.291395 -0.043201 2.538 
888 712 -6.095505 0.839035 2.761 
904 712 -5.995527 1.295700 1.368 
920 712 -5.806299 1.292619 1.429 
936 712 -5.831958 0.898078 1.862 
952 712 -5.607813 0.570332 2.755 
968 712 -5.755187 -0.354625 1.794 
984 712 -5.744659 -0.904952 2.133 
1000 712 -5.677951 -1.294733 1.232 
1016 712 -5.453012 -1.451679 1.410 
1032 712 -5.198064 -1.426832 2.560 
1048 712 -5.380989 -1.311998 1.656 
1064 712 -5.807972 -0.837220 3.265 
1080 712 -5.991624 -0.410289 2.106 
1096 712 -6.083262 -0.142852 3.735 
1112 712 -5.939608 -0.163624 2.596 
1128 712 -5.915781 -0.504271 3.169 
1144 712 -5.648548 -0.880322 1.696 
1160 712 -5.634900 -0.957807 1.108 
1176 712 -5.844874 -0.659945 1.658 
1192 712 0.169844 0.052055 1.636 
1208 712 -1.742580 -0.522746 1.024 
1224 712 -3.655003 -1.097548 1.119 
1240 712 1.158612 -6.961385 1.091 
1256 712 4.108088 -11.650607 1.058 
1272 712 10.619855 -9.092254 1.091 
8 696 7.182464 -10.182729 1.031 
24 696 6.803959 -8.230848 1.031 
40 696 4.111364 -6.731815 1.056 
56 696 -2.592823 -3.906278 1.276 
72 696 0.445633 -4.087037 1.050 
88 696 0.093718 1.072513 1.274 
104 696 -0.258196 6.232063 1.057 
120 696 -6.327712 3.336368 1.082 
136 696 -6.644639 2.773374 1.105 
152 696 -5.570392 2.357189 1.233 
168 696 -5.463829 2.432306 1.856 
184 696 -5.677462 2.136186 2.323 
200 696 -5.810663 2.338555 1.258 
216 696 -5.790558 3.078648 2.279 
232 696 -5.317842 3.134368 1.004 
248 696 -4.871177 2.654956 1.844 
264 696 -4.380188 2.280500 1.632 
280 696 -4.797178 1.652051 2.810 
296 696 -4.865538 1.336462 3.995 
312 696 -4.080626 1.644304 3.371 
328 696 -3.161532 1.788939 3.692 
344 696 -2.281596 1.826450 2.944 
360 696 -1.472711 2.231721 6.182 
376 696 -1.197504 2.370602 2.715 
392 696 -1.978653 3.138821 2.001 
408 696 -3.112786 3.364874 2.322 
424 696 -3.014956 3.065955 3.073 
440 696 -2.903314 3.036701 2.290 
456 696 -3.445730 3.355594 2.386 
472 696 -3.631306 3.011017 1.255 
488 696 -3.816881 2.666441 1.197 
504 696 -3.739763 2.828076 1.172 
520 696 -3.315521 2.912526 1.532 
536 696 -3.182731 2.410668 1.124 
552 696 -2.874754 2.230516 3.163 
568 696 -2.914284 2.268139 4.275 
584 696 -3.392417 1.938656 2.233 
600 696 -3.906758 1.214895 2.554 
616 696 -4.236454 0.412944 2.978 
632 696 -4.078670 0.466970 3.089 
648 696 -4.423088 0.619261 2.763 
664 696 -4.846706 0.289762 5.204 
680 696 -5.354218 -0.264541 13.528 
696 696 -5.706042 -0.712356 2.243 
712 696 -5.993304 -1.098842 1.014 
728 696 -5.945635 -0.759746 2.144 
744 696 -5.918231 -0.729520 2.428 
760 696 -5.812768 -0.485403 2.580 
776 696 -6.038374 -0.462473 2.912 
792 696 -6.101553 -0.098884 2.178 
808 696 -6.106134 0.260362 3.445 
824 696 -5.980789 0.262437 3.135 
840 696 -5.508127 -0.234654 2.692 
856 696 -5.114341 -0.267342 2.922 
872 696 -5.270979 0.365350 3.015 
888 696 -5.088628 1.047250 2.587 
904 696 -4.930434 1.545314 1.358 
920 696 -5.063018 1.648071 1.368 
936 696 -5.620208 1.523317 1.692 
952 696 -6.045171 0.936195 1.591 
968 696 -6.365808 -0.187985 3.616 
984 696 -6.190141 -0.807681 3.254 
1000 696 -6.173249 -1.088673 2.370 
1016 696 -6.172153 -1.280962 1.386 
1032 696 -5.584862 -1.395225 1.829 
1048 696 -5.523260 -1.445179 1.797 
1064 696 -5.616343 -0.984352 1.938 
1080 696 -5.993464 -0.528811 2.405 
1096 696 -6.150215 -0.322892 3.969 
1112 696 -6.200555 -0.291725 2.234 
1128 696 -5.787472 -0.454135 1.795 
1144 696 -5.088019 -0.628620 1.609 
1160 696 -4.952788 -0.810379 1.864 
1176 696 -5.370913 -0.800546 2.383 
1192 696 -2.908488 0.317128 1.215 
1208 696 -2.965390 -2.973196 1.199 
1224 696 -3.022292 -6.263520 1.073 
1240 696 2.086690 -7.289545 1.023 
1256 696 8.724299 -12.408578 1.016 
1272 696 13.313591 -12.169433 1.267 
8 680 4.778889 -8.942736 1.662 
24 680 6.061547 -7.033268 1.508 
40 680 4.456844 -5.282937 1.158 
56 680 2.029655 -2.576471 1.116 
72 680 -0.160075 -1.471511 1.112 
88 680 -1.103198 2.070313 1.180 
104 680 -2.046321 5.612138 1.094 
120 680 -6.168815 1.845134 1.776 
136 680 -6.666834 1.831630 2.470 
152 680 -5.944966 1.814041 2.081 
168 680 -5.580249 1.866809 1.559 
184 680 -5.294461 1.364873 2.146 
200 680 -4.867735 1.733130 1.036 
216 680 -4.941628 3.133604 2.901 
232 680 -3.978131 3.626066 1.647 
248 680 -3.799572 3.157668 1.758 
264 680 -3.607393 2.516343 2.028 
280 680 -3.628144 1.870402 1.240 
296 680 -3.428262 1.639450 1.131 
312 680 -2.764131 1.763942 3.998 
328 680 -2.569074 2.013410 2.363 
344 680 -1.980818 2.105749 2.484 
360 680 -1.398931 2.421725 2.894 
376 680 -1.289679 2.781276 2.008 
392 680 -2.164575 3.055035 1.929 
408 680 -3.150528 2.686765 3.167 
424 680 -3.171912 2.660338 3.092 
440 680 -2.470183 3.047407 2.166 
456 680 -3.181597 3.441017 1.044 
472 680 -3.687810 3.399266 1.070 
488 680 -3.598413 2.867490 1.377 
504 680 -3.610789 2.593286 1.807 
520 680 -3.178380 2.594802 1.408 
536 680 -3.049622 2.441851 1.730 
552 680 -2.611134 2.288009 2.137 
568 680 -2.701404 2.210201 2.989 
584 680 -3.243674 1.773136 3.408 
600 680 -3.578547 1.171217 1.409 
616 680 -3.880006 0.644551 2.083 
632 680 -4.103694 0.416348 2.966 
648 680 -4.280502 0.459857 4.819 
664 680 -4.773871 0.004323 5.069 
680 680 -5.346181 -0.750750 3.710 
696 680 -5.798401 -1.321117 2.839 
712 680 -5.983167 -1.466419 1.184 
728 680 -5.719826 -1.096445 1.143 
744 680 -5.142936 -0.345708 1.314 
760 680 -4.761924 -0.033545 1.101 
776 680 -4.734696 -0.040347 2.938 
792 680 -5.348262 0.159744 2.299 
808 680 -5.408167 0.548729 2.169 
824 680 -5.266402 0.519261 2.200 
840 680 -4.849678 0.022895 1.891 
856 680 -3.809088 -0.170308 2.821 
872 680 -3.594147 0.281190 2.830 
888 680 -3.847423 0.998212 1.795 
904 680 -3.703924 1.443612 1.426 
920 680 -4.177154 1.476017 1.846 
936 680 -5.189805 1.289967 1.784 
952 680 -5.830040 0.760678 1.959 
968 680 -6.251078 -0.066283 1.576 
984 680 -6.242371 -0.676419 2.345 
1000 680 -6.051382 -1.039865 1.948 
1016 680 -6.372697 -1.375291 1.936 
1032 680 -5.977941 -1.530879 1.835 
1048 680 -6.121208 -1.326735 2.618 
1064 680 -6.005034 -0.982352 3.246 
1080 680 -6.049399 -0.708223 2.256 
1096 680 -6.207195 -0.545423 3.145 
1112 680 -6.091818 -0.550617 2.737 
1128 680 -5.619424 -0.402694 2.381 
1144 680 -4.659563 -0.350615 8.232 
1160 680 -4.846029 -0.688871 11.915 
1176 680 -5.942537 -0.879120 3.133 
1192 680 -5.173305 -0.270919 1.823 
1208 680 -4.307257 -1.295690 1.163 
1224 680 -2.530118 -3.575868 1.179 
1240 680 3.014767 -7.617704 1.034 
1256 680 7.081137 -8.266396 1.134 
1272 680 9.981456 -7.776627 1.359 
8 664 -0.457806 -10.311273 1.316 
24 664 1.116030 -8.404769 1.316 
40 664 -1.425771 -5.028073 1.105 
56 664 0.935139 -1.432125 1.239 
72 664 -0.231603 1.935132 1.263 
88 664 0.037563 5.941091 1.127 
104 664 -2.363860 4.179460 1.262 
120 664 -3.907332 3.016239 2.347 
136 664 -5.450804 1.853018 1.996 
152 664 -4.454851 1.580527 1.984 
168 664 -4.459658 1.531385 1.346 
184 664 -3.994314 1.180039 1.754 
200 664 -3.103918 1.310567 1.516 
216 664 -2.873347 3.481962 1.421 
232 664 -2.638421 4.117765 1.005 
248 664 -2.714750 3.218121 1.171 
264 664 -2.598521 2.936912 1.613 
280 664 -2.303143 2.186902 1.290 
296 664 -2.461707 2.090109 1.079 
312 664 -2.530478 2.131744 2.165 
328 664 -2.477333 2.208812 3.343 
344 664 -2.133067 2.169368 4.044 
360 664 -1.760372 2.462627 2.409 
376 664 -1.751761 2.652743 2.768 
392 664 -2.215762 2.900297 2.846 
408 664 -2.842690 2.633954 3.210 
424 664 -2.809119 2.426896 3.730 
440 664 -2.492664 2.765534 2.733 
456 664 -2.869377 3.417079 2.345 
472 664 -3.119905 3.717341 1.329 
488 664 -3.292379 3.036960 2.309 
504 664 -3.353816 2.351183 5.083 
520 664 -2.943401 2.542519 1.942 
536 664 -2.726259 2.464784 2.140 
552 664 -2.369289 2.129442 2.562 
568 664 -2.397797 2.094942 2.355 
584 664 -2.549063 1.791430 1.723 
600 664 -3.093079 1.194117 1.267 
616 664 -3.358993 0.968561 3.990 
632 664 -3.826177 0.781821 2.599 
648 664 -4.399419 0.306290 1.384 
664 664 -4.540730 -0.037428 2.542 
680 664 -5.296278 -0.430480 2.028 
696 664 -5.652368 -0.882002 2.664 
712 664 -5.499713 -0.953217 1.441 
728 664 -5.067472 -0.516511 1.083 
744 664 -4.498758 0.100051 3.664 
760 664 -4.079120 0.284437 2.641 
776 664 -3.808088 0.420217 1.922 
792 664 -4.248803 0.351825 1.604 
808 664 -4.605839 0.410989 2.241 
824 664 -4.573128 0.387538 2.618 
840 664 -4.442732 -0.083322 3.096 
856 664 -3.399230 -0.196651 2.923 
872 664 -3.109265 0.071861 2.823 
888 664 -3.218102 0.583006 1.814 
904 664 -3.238571 0.923851 3.388 
920 664 -3.557580 0.827741 2.098 
936 664 -4.547085 0.826088 2.435 
952 664 -5.417221 0.617705 2.219 
968 664 -5.782157 -0.076919 1.638 
984 664 -6.055526 -0.554065 1.252 
1000 664 -5.957328 -0.878898 1.737 
1016 664 -6.579801 -1.109335 1.653 
1032 664 -6.470070 -1.316054 1.082 
1048 664 -6.383077 -1.002604 1.223 
1064 664 -6.289931 -1.176596 2.825 
1080 664 -6.130544 -1.115075 2.445 
1096 664 -6.054482 -0.951677 2.278 
1112 664 -5.829297 -0.790908 2.481 
1128 664 -5.112234 -0.537735 3.969 
1144 664 -5.107550 -0.754135 4.764 
1160 664 -5.102866 -0.970534 2.818 
1176 664 -6.481440 -0.802850 2.187 
1192 664 -7.438121 -0.858966 1.542 
1208 664 -7.483163 -0.628331 1.340 
1224 664 -2.698099 0.228368 1.585 
1240 664 0.922659 -1.522429 1.382 
1256 664 4.219713 -3.511553 1.186 
1272 664 6.649322 -3.383821 1.091 
8 648 -2.011809 -10.583268 1.170 
24 648 -2.788636 -9.770668 1.273 
40 648 -3.112943 -5.145466 1.454 
56 648 -3.437251 -0.520265 1.024 
72 648 0.535319 3.435073 1.083 
88 648 -0.419826 5.038307 1.383 
104 648 -1.530603 4.386592 1.267 
120 648 -2.013410 3.694042 1.029 
136 648 -2.496218 3.001492 1.516 
152 648 -2.206647 2.769722 1.953 
168 648 -2.329371 2.347069 1.739 
184 648 -2.391274 1.812159 1.030 
200 648 -1.807640 2.052995 1.246 
216 648 -2.053354 3.814959 1.031 
232 648 -1.844225 4.082812 1.018 
248 648 -2.103448 3.502657 1.023 
264 648 -2.200019 3.147972 4.431 
280 648 -1.867919 2.787011 4.082 
296 648 -1.990352 2.555936 2.794 
312 648 -2.262355 2.212942 1.757 
328 648 -2.296428 2.084552 1.365 
344 648 -2.163461 2.064419 1.395 
360 648 -2.021643 2.236140 1.884 
376 648 -1.841855 2.776158 1.278 
392 648 -1.912165 2.792383 1.969 
408 648 -1.993281 2.690309 2.185 
424 648 -1.779263 1.995651 1.557 
440 648 -2.504234 2.419935 1.440 
456 648 -2.721266 3.190196 1.635 
472 648 -2.915102 3.592424 1.049 
488 648 -2.734344 3.241808 2.717 
504 648 -2.969526 2.346566 2.564 
520 648 -2.750074 2.397948 2.971 
536 648 -2.530023 2.456910 2.698 
552 648 -2.453536 2.500981 1.329 
568 648 -2.095624 2.214198 1.677 
584 648 -1.827675 1.801353 1.960 
600 648 -2.091799 1.383684 1.869 
616 648 -2.473157 1.364544 2.553 
632 648 -3.615654 1.089292 3.646 
648 648 -3.815600 0.509686 2.402 
664 648 -4.118883 0.084418 3.423 
680 648 -4.605082 -0.094554 2.341 
696 648 -4.715157 -0.111189 2.027 
712 648 -4.290409 0.060602 1.703 
728 648 -4.052394 0.139437 1.879 
744 648 -3.918783 0.201214 4.781 
760 648 -3.631407 0.274666 4.306 
776 648 -3.386079 0.271225 2.618 
792 648 -3.672430 0.020495 3.892 
808 648 -4.197334 -0.077879 2.262 
824 648 -4.436052 0.149731 2.212 
840 648 -4.239805 0.248069 3.293 
856 648 -3.645419 0.077775 2.094 
872 648 -3.174652 0.009175 1.818 
888 648 -3.178863 0.327902 2.952 
904 648 -3.315803 0.505968 1.598 
920 648 -3.336162 0.420072 2.936 
936 648 -3.964751 0.319829 2.888 
952 648 -4.903629 0.300353 3.349 
968 648 -5.596856 -0.326629 1.315 
984 648 -5.833535 -0.519644 1.147 
1000 648 -6.297379 -0.916855 2.175 
1016 648 -6.724416 -1.328406 2.044 
1032 648 -6.636080 -1.161558 2.177 
1048 648 -6.257125 -1.014096 2.106 
1064 648 -6.141969 -1.223245 2.744 
1080 648 -6.122909 -1.244920 2.532 
1096 648 -6.081750 -1.304974 1.569 
1112 648 -5.739343 -1.070849 2.927 
1128 648 -4.802483 -0.884164 4.067 
1144 648 -4.963217 -1.052564 3.963 
1160 648 -5.123952 -1.220964 2.518 
1176 648 -6.183440 -1.157603 1.567 
1192 648 -6.655403 -1.189023 1.157 
1208 648 -5.355213 -0.750697 2.777 
1224 648 -1.325489 1.064407 1.830 
1240 648 0.436024 2.206225 1.330 
1256 648 3.668003 -0.239958 1.142 
1272 648 4.913994 0.167812 1.176 
8 632 -3.565811 -10.855264 1.023 
24 632 -2.254858 -8.461988 1.069 
40 632 -1.896487 -4.669351 1.233 
56 632 -1.538117 -0.876714 1.006 
72 632 0.589399 2.133335 1.016 
88 632 0.427824 4.341657 1.141 
104 632 -0.238683 4.733707 1.437 
120 632 -0.633236 4.372844 1.078 
136 632 -0.304489 4.258242 1.207 
152 632 -0.364545 3.745349 1.653 
168 632 -0.576100 3.272572 2.113 
184 632 -1.329222 2.501042 1.839 
200 632 -0.967865 2.769769 1.948 
216 632 -1.667092 3.976528 3.345 
232 632 -1.509156 3.787425 1.143 
248 632 -2.110259 3.482676 1.238 
264 632 -2.418061 3.309470 2.496 
280 632 -1.971220 3.312099 3.709 
296 632 -2.221894 2.777964 2.936 
312 632 -2.527952 2.520104 2.800 
328 632 -2.363417 2.347960 1.585 
344 632 -2.287810 2.412523 1.740 
360 632 -2.224865 2.414103 1.899 
376 632 -1.781115 2.541863 2.936 
392 632 -1.608568 2.684468 3.482 
408 632 -1.731331 2.419369 3.267 
424 632 -1.853327 1.852140 2.745 
440 632 -2.110223 1.879790 1.338 
456 632 -2.454724 2.787011 1.716 
472 632 -2.808698 3.436453 1.019 
488 632 -2.820356 3.133908 2.189 
504 632 -2.753977 2.441858 1.915 
520 632 -2.589360 2.548005 4.031 
536 632 -2.231007 2.456127 2.219 
552 632 -2.018776 2.370173 2.776 
568 632 -2.022220 2.408583 2.361 
584 632 -1.855370 1.924099 2.080 
600 632 -2.106107 1.550956 2.208 
616 632 -2.809647 1.705590 2.781 
632 632 -3.421924 1.463243 2.778 
648 632 -3.665363 0.648132 2.219 
664 632 -3.425262 0.096518 2.270 
680 632 -3.513183 0.008659 3.370 
696 632 -3.350689 0.315942 1.273 
712 632 -3.421331 0.348132 1.365 
728 632 -3.444843 0.388971 1.688 
744 632 -3.572131 0.356386 3.219 
760 632 -3.494566 0.321172 3.990 
776 632 -3.585745 0.036841 4.624 
792 632 -3.852907 -0.105202 3.768 
808 632 -4.080766 -0.013493 2.363 
824 632 -4.094277 0.435619 2.238 
840 632 -3.845508 0.700531 2.678 
856 632 -3.655085 0.626802 2.169 
872 632 -3.571124 0.575114 3.912 
888 632 -3.688666 0.729842 2.762 
904 632 -3.360894 0.625620 1.317 
920 632 -3.373701 0.525860 1.695 
936 632 -3.657787 0.286630 3.130 
952 632 -4.580060 -0.382446 1.146 
968 632 -5.605018 -0.697631 1.020 
984 632 -5.777239 -0.594561 1.036 
1000 632 -6.139789 -0.906191 2.684 
1016 632 -6.258378 -1.302157 3.363 
1032 632 -6.053041 -1.293875 3.273 
1048 632 -5.757229 -1.090164 3.132 
1064 632 -5.727168 -1.098023 2.611 
1080 632 -6.096561 -1.377321 3.677 