TITLE = "B00012"
VARIABLES = "x", "y", "u", "v", "sn"
ZONE T="Frame 0", I=80, J=50
8 792 0.000000 -0.000000 2.016 
24 792 0.000000 -0.000000 2.091 
40 792 0.000000 -0.000000 1.489 
56 792 6.330956 -4.138290 1.148 
72 792 6.700296 -0.967828 1.215 
88 792 7.069637 2.202634 1.311 
104 792 5.908515 6.907572 1.243 
120 792 3.966110 7.683173 1.057 
136 792 1.475619 6.222828 1.036 
152 792 -1.014873 4.762483 1.608 
168 792 -1.622427 2.447875 1.469 
184 792 -1.007258 0.503813 1.237 
200 792 -1.517489 1.049969 1.432 
216 792 -2.027720 1.596126 1.676 
232 792 -2.537951 2.142282 1.242 
248 792 -2.889974 2.986849 2.166 
264 792 -3.065226 2.801710 1.777 
280 792 -2.679391 2.191118 1.336 
296 792 -2.671379 1.955491 1.185 
312 792 -2.664787 2.011442 1.447 
328 792 -2.380279 1.945952 2.536 
344 792 -2.392602 1.796019 1.911 
360 792 -2.694953 1.730647 1.146 
376 792 -3.002280 1.770229 1.258 
392 792 -3.089187 1.500754 2.176 
408 792 -3.200430 1.589528 4.692 
424 792 -3.237909 1.793173 3.938 
440 792 -3.217227 1.659492 2.492 
456 792 -3.699177 1.560513 4.649 
472 792 -3.292253 0.755044 2.164 
488 792 -1.403549 -0.199729 2.553 
504 792 2.765332 -5.988358 1.262 
520 792 2.968777 -7.222387 1.672 
536 792 3.172223 -8.456415 1.668 
552 792 3.375668 -9.690444 1.048 
568 792 0.506332 -2.197460 1.025 
584 792 -2.283447 2.039056 2.122 
600 792 -2.979115 1.099658 3.071 
616 792 -2.983637 0.721886 2.176 
632 792 -2.988159 0.344114 2.098 
648 792 -3.048015 0.099660 1.881 
664 792 -2.821025 -0.107926 2.435 
680 792 -2.019393 -0.339041 2.957 
696 792 -1.470699 -0.112927 1.600 
712 792 -2.321801 -0.248187 1.772 
728 792 -2.291220 -0.327933 1.166 
744 792 -2.373384 -0.565002 1.869 
760 792 -2.883262 -0.809404 1.713 
776 792 -3.549258 -0.297116 1.465 
792 792 -3.529548 -0.068686 1.377 
808 792 -3.627868 -0.389753 2.612 
824 792 -4.018670 -0.432262 1.623 
840 792 -4.046392 -0.217758 2.202 
856 792 -4.218939 -0.154358 1.576 
872 792 -4.435893 0.264405 1.741 
888 792 -4.085005 1.178080 1.763 
904 792 -3.062749 2.171570 1.740 
920 792 -3.078193 2.383288 2.596 
936 792 -3.375077 1.912965 1.961 
952 792 -3.150033 1.584106 1.717 
968 792 -2.648301 1.470382 3.191 
984 792 -2.858906 1.350310 1.689 
1000 792 -3.950907 0.853296 1.014 
1016 792 -4.495407 -0.927852 1.492 
1032 792 -4.874839 -1.463818 3.699 
1048 792 -5.123524 -1.386395 3.874 
1064 792 -5.951450 -1.677553 2.337 
1080 792 -6.779376 -1.968711 1.290 
1096 792 -7.607302 -2.259868 1.705 
1112 792 19.771058 0.313688 1.248 
1128 792 21.669413 -2.127476 5.078 
1144 792 23.567768 -4.568641 1.290 
1160 792 17.869184 -9.237415 1.039 
1176 792 13.110510 -8.612754 1.013 
1192 792 8.351836 -7.988093 1.036 
1208 792 3.593162 -7.363432 1.008 
1224 792 -1.165512 -6.738771 1.006 
1240 792 -0.196991 0.052472 1.204 
1256 792 0.501914 1.033746 1.464 
1272 792 0.658193 0.925346 1.542 
8 776 10.084332 -8.388321 1.886 
24 776 12.024196 -8.899761 1.979 
40 776 13.112369 -8.709242 1.288 
56 776 11.446339 -7.042736 1.211 
72 776 7.988929 -1.854589 1.280 
88 776 6.481403 4.564988 1.210 
104 776 4.968042 9.034123 1.216 
120 776 2.961300 9.368996 1.107 
136 776 0.374824 7.537691 1.012 
152 776 -0.612400 5.148200 1.586 
168 776 -1.865979 3.117192 1.502 
184 776 -2.327527 1.390754 1.228 
200 776 -1.514745 -1.368517 1.392 
216 776 -2.190656 0.323873 1.663 
232 776 -2.866567 2.016263 1.378 
248 776 -3.138965 3.173462 2.476 
264 776 -3.013441 2.723872 1.707 
280 776 -2.648988 2.304108 1.217 
296 776 -2.673908 2.132626 1.109 
312 776 -2.647920 2.089528 1.555 
328 776 -2.365995 1.998854 2.443 
344 776 -2.131764 1.894037 1.911 
360 776 -2.848540 1.961457 1.219 
376 776 -2.879381 1.915454 1.278 
392 776 -3.045208 1.671625 2.173 
408 776 -3.206900 1.687793 4.500 
424 776 -3.296953 1.729890 4.265 
440 776 -3.451460 1.815941 2.557 
456 776 -4.023705 1.988620 4.512 
472 776 -4.048457 1.756486 2.235 
488 776 -2.627121 0.818450 2.319 
504 776 1.098697 -3.757034 1.245 
520 776 2.245411 -11.803574 1.736 
536 776 2.244919 -10.055009 1.710 
552 776 2.244428 -8.306444 1.005 
568 776 -0.354849 -1.157555 1.006 
584 776 -2.831425 2.487694 2.051 
600 776 -3.208596 1.538761 2.926 
616 776 -3.010344 1.136011 2.304 
632 776 -2.889878 0.865671 2.294 
648 776 -2.989453 0.485144 1.880 
664 776 -2.771803 0.106803 2.474 
680 776 -2.077751 -0.278671 2.913 
696 776 -1.796671 -0.098657 1.709 
712 776 -2.329468 -0.157983 1.661 
728 776 -2.203902 -0.303662 1.067 
744 776 -2.234800 -0.454775 1.758 
760 776 -2.701188 -0.664620 1.651 
776 776 -3.344278 -0.250349 1.439 
792 776 -3.379345 -0.140787 1.320 
808 776 -3.374744 -0.357615 2.710 
824 776 -3.766322 -0.359758 1.706 
840 776 -3.807125 -0.155393 2.196 
856 776 -3.935538 -0.062026 1.624 
872 776 -4.076870 0.349656 1.652 
888 776 -3.484585 1.260221 1.642 
904 776 -2.849677 2.028363 1.697 
920 776 -2.869648 2.237243 2.680 
936 776 -3.400580 1.855684 2.088 
952 776 -3.310152 1.489557 1.739 
968 776 -2.877231 1.378028 3.245 
984 776 -3.080709 1.341528 1.760 
1000 776 -4.046333 0.993055 1.045 
1016 776 -4.385346 -0.782919 1.671 
1032 776 -4.634632 -1.418116 3.608 
1048 776 -5.470563 -1.523566 3.823 
1064 776 -5.563808 -1.601991 2.511 
1080 776 -4.884385 -2.452164 1.304 
1096 776 -4.846254 -1.831755 1.793 
1112 776 20.924311 0.517014 1.272 
1128 776 21.262774 -1.012627 7.104 
1144 776 21.601237 -2.542269 1.262 
1160 776 11.461327 -6.311393 1.025 
1176 776 4.053558 -6.542396 1.054 
1192 776 -3.354211 -6.773398 1.115 
1208 776 -1.913634 -4.610977 1.045 
1224 776 -0.954530 -4.006471 1.032 
1240 776 0.331248 0.167619 1.178 
1256 776 0.579058 -2.910756 1.534 
1272 776 1.063545 1.123829 1.607 
8 760 11.642963 -8.877156 1.089 
24 760 12.147125 -8.056383 1.001 
40 760 14.151693 -7.958812 1.019 
56 760 15.312998 -6.734722 1.038 
72 760 6.556314 -4.009487 1.163 
88 760 4.265117 8.893630 1.030 
104 760 3.394952 11.860881 1.198 
120 760 1.956490 11.054820 1.082 
136 760 0.691116 6.952171 1.336 
152 760 0.383402 3.354018 1.348 
168 760 -2.313022 2.564701 1.009 
184 760 -3.128086 1.568217 1.569 
200 760 -3.713715 0.524699 1.454 
216 760 -2.753584 0.469303 2.226 
232 760 -2.708968 1.627386 1.713 
248 760 -2.886991 2.874653 2.282 
264 760 -2.038628 2.631905 1.918 
280 760 -2.540944 2.543227 1.685 
296 760 -2.736030 2.166010 2.276 
312 760 -2.751742 2.166547 2.804 
328 760 -2.311714 2.020254 2.381 
344 760 -2.276035 1.530267 1.614 
360 760 -2.783975 1.770265 2.652 
376 760 -2.877062 1.840591 2.060 
392 760 -2.840497 1.901022 1.804 
408 760 -3.305039 1.651906 3.271 
424 760 -3.499944 1.546480 5.429 
440 760 -3.771470 1.516762 2.363 
456 760 -3.963678 0.870567 1.575 
472 760 -4.238471 1.259465 1.203 
488 760 -2.905284 1.430669 1.059 
504 760 -1.180572 -2.645452 1.670 
520 760 0.397571 -8.199468 2.281 
536 760 1.066455 -9.685464 2.256 
552 760 0.479706 -5.187796 1.057 
568 760 -0.896935 0.068489 1.008 
584 760 -2.203334 2.248483 1.524 
600 760 -2.699794 2.034102 2.817 
616 760 -2.517395 1.813098 2.590 
632 760 -2.442211 1.813108 1.543 
648 760 -2.792092 1.471776 1.400 
664 760 -2.534406 0.100453 1.801 
680 760 -2.366311 -0.337701 2.288 
696 760 -2.122643 -0.084388 2.043 
712 760 -2.198335 0.011841 1.559 
728 760 -1.974861 -0.081523 1.050 
744 760 -1.714827 -0.036034 1.107 
760 760 -2.183443 -0.272832 1.439 
776 760 -2.918409 -0.225762 1.123 
792 760 -2.730562 -0.257872 1.160 
808 760 -2.378837 -0.240953 2.695 
824 760 -3.008269 -0.259974 2.879 
840 760 -3.228503 -0.148353 2.252 
856 760 -3.295710 0.131261 2.635 
872 760 -3.016815 0.646364 1.803 
888 760 -2.705075 1.338232 2.620 
904 760 -2.459026 1.781267 2.636 
920 760 -2.556650 2.020445 1.952 
936 760 -3.360499 1.923784 3.308 
952 760 -4.100698 1.621606 1.964 
968 760 -4.438635 1.732242 1.302 
984 760 -3.818061 1.643493 1.041 
1000 760 -4.241233 1.251897 1.405 
1016 760 -4.143894 -0.458417 1.628 
1032 760 -4.277587 -1.281431 1.266 
1048 760 -5.035643 -1.762277 2.073 
1064 760 -5.399206 -1.865116 5.175 
1080 760 -5.565285 -2.227333 1.354 
1096 760 -2.718765 -1.890142 2.097 
1112 760 15.388519 -0.270653 1.968 
1128 760 18.339349 -0.371695 2.766 
1144 760 7.214861 -2.418378 1.641 
1160 760 1.429061 -5.922492 1.109 
1176 760 -2.266569 -6.138849 1.416 
1192 760 -5.962199 -6.355205 1.236 
1208 760 -1.221179 -0.320761 1.024 
1224 760 -0.743547 -1.274171 1.007 
1240 760 -0.315733 -4.084360 1.026 
1256 760 0.656202 -6.855259 1.348 
1272 760 -0.014762 -7.070095 1.090 
8 744 10.973361 -10.559388 1.004 
24 744 12.270053 -7.213006 1.113 
40 744 12.939044 -7.100577 1.916 
56 744 15.028579 -6.578884 1.340 
72 744 2.927109 -5.820311 1.036 
88 744 -0.450958 15.313053 1.097 
104 744 -4.056546 13.025039 1.060 
120 744 -2.119264 11.340107 1.134 
136 744 1.007409 6.366651 1.159 
152 744 0.188546 3.690187 1.311 
168 744 -2.098485 2.512833 1.104 
184 744 -3.928645 1.745679 2.166 
200 744 -3.770348 0.569794 2.236 
216 744 -2.682634 0.789590 2.041 
232 744 -2.249707 1.588726 1.766 
248 744 -2.235225 2.414714 3.177 
264 744 -1.875244 2.579095 1.880 
280 744 -2.600239 2.724372 1.780 
296 744 -2.987841 2.615314 3.954 
312 744 -3.092877 2.191635 2.700 
328 744 -2.783623 1.610910 2.143 
344 744 -2.671188 1.385268 2.051 
360 744 -3.040532 1.510850 2.502 
376 744 -2.874743 1.765728 3.314 
392 744 -3.174300 1.728218 2.280 
408 744 -3.712260 1.528699 2.258 
424 744 -3.957572 1.400385 1.367 
440 744 -4.292562 0.974885 1.727 
456 744 -4.323141 1.160125 1.201 
472 744 -4.558324 1.246780 1.621 
488 744 -3.730887 1.437042 1.802 
504 744 -3.178837 1.007281 1.858 
520 744 -2.218643 -2.390146 1.187 
536 744 -0.989692 -4.344471 1.099 
552 744 -1.222203 -1.350693 1.674 
568 744 -2.261296 1.869810 1.402 
584 744 -2.688772 1.582344 3.320 
600 744 -2.649735 1.389979 3.610 
616 744 -2.211711 1.680924 2.599 
632 744 -2.469767 2.220118 1.554 
648 744 -2.681234 1.854212 1.180 
664 744 -2.759948 0.290045 1.076 
680 744 -2.654871 -0.396731 2.460 
696 744 -2.417035 -0.027701 3.093 
712 744 -2.041106 -0.104267 1.621 
728 744 -1.467271 -0.113331 1.404 
744 744 -1.265893 0.149341 1.972 
760 744 -1.625559 0.249301 2.176 
776 744 -2.337453 -0.120796 1.521 
792 744 -2.003451 -0.341356 1.042 
808 744 -2.348880 -0.437541 1.641 
824 744 -2.040545 -0.238070 3.114 
840 744 -2.453835 -0.317035 3.060 
856 744 -2.260529 0.030446 1.833 
872 744 -2.127379 0.701730 2.181 
888 744 -2.243139 1.212703 1.994 
904 744 -2.245046 1.228528 2.056 
920 744 -2.605649 1.655913 1.792 
936 744 -3.848109 1.747343 1.954 
952 744 -4.855337 1.679859 1.224 
968 744 -4.641231 1.737927 1.001 
984 744 -4.695591 1.998866 1.720 
1000 744 -4.633896 1.425856 1.691 
1016 744 -4.101202 0.031265 1.397 
1032 744 -4.047113 -1.002690 1.523 
1048 744 -4.371479 -1.731379 1.906 
1064 744 -4.207958 -1.797141 2.241 
1080 744 -6.246185 -2.002503 1.538 
1096 744 -0.591275 -1.948529 1.222 
1112 744 7.628548 -1.665751 1.012 
1128 744 6.518021 -1.672685 1.151 
1144 744 -1.903290 -3.266285 1.626 
1160 744 -4.435907 -5.155035 1.088 
1176 744 -6.968524 -7.043784 1.573 
1192 744 -4.711480 -3.163556 1.050 
1208 744 -1.514958 0.803187 1.605 
1224 744 -1.187548 -0.395240 1.035 
1240 744 -0.679190 -8.338059 1.086 
1256 744 -0.181569 -8.133795 1.312 
1272 744 -1.044177 -8.243726 1.083 
8 728 12.961691 -11.975208 1.023 
24 728 13.056345 -6.017932 1.159 
40 728 9.977164 -4.148712 1.002 
56 728 12.383031 -3.372518 1.076 
72 728 17.354192 1.433001 1.156 
88 728 -3.547558 15.482077 1.094 
104 728 -4.407572 13.914230 1.006 
120 728 -3.844458 16.472528 1.112 
136 728 -0.093710 7.790497 1.175 
152 728 -0.902512 6.249725 1.895 
168 728 -2.435732 3.570703 1.917 
184 728 -3.930243 1.684200 2.245 
200 728 -3.849367 0.681747 2.257 
216 728 -2.936359 0.946098 1.589 
232 728 -2.440083 1.515967 2.564 
248 728 -2.271861 2.185962 1.956 
264 728 -2.317121 2.612725 2.210 
280 728 -2.959119 2.670136 3.755 
296 728 -3.539224 2.519180 4.710 
312 728 -3.588632 2.161951 2.346 
328 728 -3.625255 1.598802 2.849 
344 728 -3.496008 1.461959 2.515 
360 728 -3.458146 1.479079 3.583 
376 728 -3.417471 1.700957 2.014 
392 728 -3.911325 1.813973 2.137 
408 728 -4.158722 1.397697 2.372 
424 728 -4.442456 1.146156 3.687 
440 728 -4.538521 1.215118 1.583 
456 728 -4.732851 1.185472 1.911 
472 728 -4.429170 0.790414 1.812 
488 728 -4.556490 1.443415 1.445 
504 728 -3.838990 1.686718 1.117 
520 728 -3.834992 2.021931 2.005 
536 728 -2.641556 0.501546 1.603 
552 728 -2.548167 1.333955 1.748 
568 728 -2.754008 1.546825 2.335 
584 728 -2.626148 0.799440 2.790 
600 728 -2.805439 1.087092 2.140 
616 728 -2.411377 1.378216 3.062 
632 728 -2.398663 1.506157 1.613 
648 728 -2.592951 1.150547 1.963 
664 728 -2.821178 0.200681 2.261 
680 728 -2.847492 -0.395199 2.176 
696 728 -2.417879 -0.476356 2.496 
712 728 -1.824139 -0.536118 3.434 
728 728 -1.436202 -0.207164 4.620 
744 728 -1.444601 0.574549 2.718 
760 728 -2.001583 0.767235 2.742 
776 728 -2.590701 -0.025658 3.185 
792 728 -2.657365 -0.632317 2.067 
808 728 -2.318923 -0.634130 1.899 
824 728 -2.155381 -0.533580 2.711 
840 728 -2.448115 -0.501619 1.993 
856 728 -2.166250 -0.048295 2.458 
872 728 -2.024724 0.814770 2.981 
888 728 -2.449017 1.368740 2.137 
904 728 -2.504078 0.981499 2.527 
920 728 -2.845311 0.816802 1.998 
936 728 -3.477249 1.004580 1.520 
952 728 -5.117626 1.568330 1.663 
968 728 -4.509800 1.454003 1.989 
984 728 -4.584216 1.833384 2.009 
1000 728 -4.823012 1.524760 1.919 
1016 728 -4.674080 0.455248 1.682 
1032 728 -4.574168 -0.624544 1.568 
1048 728 -4.674790 -1.598752 3.104 
1064 728 -4.172187 -2.126685 2.439 
1080 728 -6.068151 -2.579361 1.907 
1096 728 -7.578906 -2.655007 2.572 
1112 728 -7.261928 -2.924489 1.660 
1128 728 0.125630 -2.080400 1.503 
1144 728 -4.881121 -2.452020 1.245 
1160 728 -5.356167 -2.529235 1.460 
1176 728 -5.831212 -2.606451 1.116 
1192 728 -1.676204 0.916792 1.487 
1208 728 -1.336635 0.683824 1.528 
1224 728 -1.631549 0.483690 1.086 
1240 728 -0.080291 -6.196012 1.038 
1256 728 -4.162163 -7.592530 1.647 
1272 728 -5.286247 -7.344108 1.756 
8 712 10.481301 -6.780611 1.445 
24 712 13.248327 -2.914475 1.364 
40 712 6.301004 0.260481 1.107 
56 712 9.737482 -0.166152 1.185 
72 712 3.923335 4.140708 1.012 
88 712 -1.890812 8.447567 1.055 
104 712 -4.758598 14.803420 1.095 
120 712 -4.213501 11.760145 1.088 
136 712 -2.397883 6.839435 1.011 
152 712 -2.600528 5.404513 2.148 
168 712 -3.481351 3.041664 1.311 
184 712 -4.093099 1.290866 2.934 
200 712 -3.990614 0.516918 3.909 
216 712 -3.528091 0.866143 2.145 
232 712 -3.077477 1.433093 1.197 
248 712 -2.858016 2.057812 2.253 
264 712 -3.042401 2.467343 2.787 
280 712 -3.432532 2.421206 2.906 
296 712 -3.565528 2.299801 2.909 
312 712 -3.581507 2.293359 2.337 
328 712 -3.858938 1.953343 1.891 
344 712 -3.697713 1.739757 3.086 
360 712 -3.626048 1.544976 2.715 
376 712 -3.796435 1.620439 3.192 
392 712 -4.025875 1.751958 2.167 
408 712 -4.225688 1.526141 1.775 
424 712 -4.431298 1.161689 2.264 
440 712 -4.664995 1.230536 2.348 
456 712 -4.897019 1.174829 1.601 
472 712 -4.643930 0.997283 2.643 
488 712 -4.670117 1.522025 2.221 
504 712 -4.499143 2.366156 1.803 
520 712 -4.051883 2.875635 1.929 
536 712 -3.419668 1.880104 1.749 
552 712 -3.187497 1.929120 1.532 
568 712 -3.334307 1.495685 2.210 
584 712 -2.990247 0.657975 2.710 
600 712 -2.961142 0.784204 3.162 
616 712 -2.922297 1.332217 3.672 
632 712 -2.569844 1.134141 2.398 
648 712 -2.313946 0.703946 2.073 
664 712 -2.088167 0.171188 1.171 
680 712 -2.103184 -0.254022 1.163 
696 712 -2.036775 -0.629851 3.314 
712 712 -1.738952 -0.728609 2.371 
728 712 -1.468690 -0.492833 2.568 
744 712 -1.917421 0.587600 2.407 
760 712 -2.909686 0.769961 1.442 
776 712 -3.682843 0.392011 2.077 
792 712 -3.693056 -0.514514 1.338 
808 712 -3.174037 -0.515336 1.863 
824 712 -3.031253 -0.473897 1.379 
840 712 -2.948527 -0.408217 1.460 
856 712 -2.632004 0.133771 1.971 
872 712 -2.737389 1.194793 3.143 
888 712 -2.828866 1.560951 1.242 
904 712 -2.984108 1.449294 3.140 
920 712 -3.062451 0.583974 1.821 
936 712 -3.210454 0.411059 1.312 
952 712 -4.053643 0.578262 1.492 
968 712 -4.371069 0.774297 1.556 
984 712 -4.779466 1.175371 2.077 
1000 712 -5.155934 1.067092 2.082 
1016 712 -5.460129 0.618396 2.014 
1032 712 -5.502895 -0.383907 2.120 
1048 712 -4.978101 -1.466125 2.358 
1064 712 -4.987798 -2.417843 2.719 
1080 712 -6.106575 -2.907443 1.156 
1096 712 -7.023054 -2.970535 2.854 
1112 712 -7.255125 -2.822381 4.427 
1128 712 -6.266762 -2.488114 3.979 
1144 712 -5.744168 -1.940185 4.621 
1160 712 -6.388677 -1.264741 1.155 
1176 712 -5.467605 -0.214526 1.080 
1192 712 -2.834056 1.278169 1.695 
1208 712 -1.158313 0.564462 1.915 
1224 712 -0.731698 -0.178530 1.091 
1240 712 1.375151 -3.781789 1.043 
1256 712 -8.142757 -7.051264 1.152 
1272 712 -8.879609 -6.703445 1.015 
8 696 8.000910 -1.586013 1.133 
24 696 7.741266 -0.871579 1.045 
40 696 4.704578 0.253606 1.290 
56 696 2.890910 -0.544587 1.244 
72 696 1.938133 0.130543 1.015 
88 696 0.985356 0.805674 1.168 
104 696 -2.436229 7.107953 1.373 
120 696 -4.582544 7.047763 1.650 
136 696 -4.702056 5.888373 1.194 
152 696 -4.574287 4.224314 1.392 
168 696 -4.171510 2.762219 1.041 
184 696 -4.640180 1.310718 3.815 
200 696 -4.400962 0.623131 4.794 
216 696 -4.159106 0.616021 2.812 
232 696 -4.404609 1.265750 2.011 
248 696 -3.830840 1.920044 1.596 
264 696 -3.427452 2.261299 3.744 
280 696 -3.637833 2.237964 2.510 
296 696 -3.791274 2.100689 2.662 
312 696 -3.764296 2.102906 1.686 
328 696 -3.851392 1.972050 1.079 
344 696 -3.537850 1.615390 1.583 
360 696 -3.583044 1.334144 1.744 
376 696 -3.753131 1.471537 1.642 
392 696 -4.074264 1.603789 2.347 
408 696 -4.437483 1.242968 2.732 
424 696 -4.601698 0.802917 2.354 
440 696 -4.573799 0.971159 1.128 
456 696 -4.870013 1.307155 1.578 
472 696 -4.638322 1.486303 2.349 
488 696 -4.311392 1.988446 3.024 
504 696 -4.168886 2.536644 1.636 
520 696 -4.470149 2.932154 1.590 
536 696 -4.195635 2.309240 1.013 
552 696 -3.942789 1.856445 3.220 
568 696 -4.059213 1.139290 4.021 
584 696 -3.356130 0.643525 2.276 
600 696 -3.069652 0.995396 2.281 
616 696 -3.061215 1.226048 2.978 
632 696 -2.852877 1.193100 2.788 
648 696 -2.252657 0.834522 2.540 
664 696 -1.877970 0.502614 1.604 
680 696 -1.751809 0.188839 1.424 
696 696 -1.672249 -0.519913 1.929 
712 696 -1.653766 -0.921100 2.548 
728 696 -1.786823 -0.405321 1.913 
744 696 -2.789168 0.528251 2.757 
760 696 -3.487164 0.733641 1.438 
776 696 -3.922029 0.488937 1.504 
792 696 -3.520898 -0.236846 2.119 
808 696 -3.489210 -0.138260 2.081 
824 696 -3.580483 0.004820 2.391 
840 696 -3.886255 0.029701 2.194 
856 696 -3.700144 0.608773 1.550 
872 696 -3.220782 1.809983 1.180 
888 696 -3.472385 1.940252 2.555 
904 696 -3.835909 1.641651 1.867 
920 696 -3.162363 1.114293 3.324 
936 696 -3.601623 0.825471 3.483 
952 696 -4.099934 0.758720 2.479 
968 696 -4.323122 0.599288 2.063 
984 696 -4.750734 0.593916 2.294 
1000 696 -5.488856 0.609424 2.617 
1016 696 -5.312613 0.144400 2.468 
1032 696 -6.300921 -0.372069 1.669 
1048 696 -6.262237 -1.387272 3.287 
1064 696 -6.544933 -2.132522 7.451 
1080 696 -6.617672 -2.978937 5.261 
1096 696 -6.076547 -3.093226 2.208 
1112 696 -5.837031 -2.568725 1.278 
1128 696 -5.698111 -2.164968 2.232 
1144 696 -5.765286 -1.666431 7.335 
1160 696 -6.252786 -1.469195 2.539 
1176 696 -6.437132 -0.979826 2.479 
1192 696 -4.100632 -0.206571 3.810 
1208 696 -1.839193 -0.104025 1.433 
1224 696 -0.191645 -1.372726 1.557 
1240 696 2.558533 -1.390379 1.057 
1256 696 -2.544458 -4.181915 1.023 
1272 696 10.424929 -0.796848 1.098 
8 680 6.691008 -1.412801 1.020 
24 680 3.590631 -0.018375 1.110 
40 680 3.108152 0.246731 1.157 
56 680 2.358768 -2.010357 1.067 
72 680 0.545765 -3.304497 1.268 
88 680 -0.220777 1.229151 1.373 
104 680 -1.051215 2.827994 1.507 
120 680 -4.404598 4.772711 1.784 
136 680 -4.658046 4.887856 1.893 
152 680 -5.501078 3.452722 1.999 
168 680 -4.894316 2.395502 1.626 
184 680 -4.622605 1.242018 1.305 
200 680 -4.487088 0.762546 2.110 
216 680 -4.269499 0.678585 1.448 
232 680 -4.296027 1.148913 2.591 
248 680 -3.949098 1.865231 1.673 
264 680 -3.774906 2.270856 2.190 
280 680 -3.946738 1.932469 1.163 
296 680 -4.265525 1.698177 1.326 
312 680 -4.400045 2.030845 1.878 
328 680 -4.093106 1.626011 1.303 
344 680 -3.937188 1.131531 2.947 
360 680 -3.921098 0.791592 2.759 
376 680 -4.048478 1.012432 1.905 
392 680 -4.618068 1.291033 3.009 
408 680 -4.717218 1.107930 5.762 
424 680 -4.550069 0.784800 1.675 
440 680 -4.318749 0.895361 1.007 
456 680 -3.832118 1.500592 3.103 
472 680 -3.454526 1.591203 2.826 
488 680 -3.491376 2.425696 3.511 
504 680 -3.473622 3.045863 1.288 
520 680 -4.050506 3.461922 1.265 
536 680 -4.479248 2.765407 1.029 
552 680 -4.759166 1.936414 2.130 
568 680 -4.470974 1.482672 3.937 
584 680 -3.963717 1.121538 1.860 
600 680 -3.178162 1.206587 2.453 
616 680 -2.893367 1.565660 3.666 
632 680 -2.937974 1.315232 2.480 
648 680 -2.805965 1.423938 2.148 
664 680 -2.691432 1.759394 1.800 
680 680 -2.776190 1.004261 2.390 
696 680 -2.304503 -0.209384 2.467 
712 680 -2.082575 -0.153043 2.158 
728 680 -2.500266 0.508261 1.074 
744 680 -3.307138 0.646602 2.369 
760 680 -3.499791 0.540552 1.689 
776 680 -3.456299 0.134599 1.561 
792 680 -3.266606 -0.187055 1.581 
808 680 -3.589663 -0.061416 1.988 
824 680 -3.841588 -0.068626 1.131 
840 680 -4.130113 0.507233 2.241 
856 680 -3.952076 1.313237 2.913 
872 680 -3.312118 1.832202 1.183 
888 680 -3.308045 1.763688 1.057 
904 680 -3.603852 1.582298 1.040 
920 680 -3.618768 1.364753 2.406 
936 680 -3.951309 1.341366 2.339 
952 680 -4.130286 1.152408 1.423 
968 680 -4.271787 0.910483 1.044 
984 680 -4.466603 0.519577 2.340 
1000 680 -4.679109 -0.256343 2.547 
1016 680 -5.165097 -0.329595 2.703 
1032 680 -5.701176 -0.354622 3.628 
1048 680 -6.101832 -0.854887 3.484 
1064 680 -6.282562 -1.340829 5.044 
1080 680 -5.939842 -2.129520 2.086 
1096 680 -5.025226 -2.969736 2.419 
1112 680 -3.886659 -2.144745 1.132 
1128 680 -4.748515 -2.265568 1.625 
1144 680 -5.338900 -2.170513 4.014 
1160 680 -6.118646 -2.009663 2.622 
1176 680 -6.173888 -1.579510 1.741 
1192 680 -4.757584 -1.568669 3.136 
1208 680 0.096719 -0.581504 1.005 
1224 680 0.475381 -1.143667 1.244 
1240 680 0.854042 -1.705830 1.269 
1256 680 3.053841 -1.312566 1.099 
1272 680 2.924806 -0.295499 1.105 
8 664 5.381105 -1.239589 1.586 
24 664 3.994968 -0.091168 1.510 
40 664 4.490561 0.261132 1.212 
56 664 3.132336 -0.940778 1.159 
72 664 1.996898 -1.075632 1.274 
88 664 0.460940 -2.716431 1.054 
104 664 0.186153 -0.932402 1.039 
120 664 -2.785134 3.841337 1.201 
136 664 -4.614035 3.887339 1.999 
152 664 -5.527362 2.774815 1.325 
168 664 -5.117596 1.943561 1.300 
184 664 -4.434778 1.240396 1.028 
200 664 -4.419855 0.892935 1.577 
216 664 -4.097328 0.852930 1.542 
232 664 -4.131500 1.284370 3.795 
248 664 -4.049646 2.116763 1.572 
264 664 -3.940626 2.311476 1.280 
280 664 -4.158485 1.736341 1.548 
296 664 -4.401771 1.382968 1.496 
312 664 -4.451560 1.701410 1.392 
328 664 -4.258429 1.322661 1.238 
344 664 -4.382161 0.630216 1.679 
360 664 -4.248288 0.603836 2.075 
376 664 -4.430559 0.618684 2.178 
392 664 -4.527619 1.217618 2.556 
408 664 -4.639102 1.225967 1.313 
424 664 -4.310792 1.207288 2.528 
440 664 -3.660459 1.508305 4.388 
456 664 -3.393740 2.113367 3.156 
472 664 -2.973560 2.192321 2.447 
488 664 -2.790904 2.796767 2.029 
504 664 -2.899174 3.219249 2.801 
520 664 -2.796706 3.223556 1.477 
536 664 -4.197480 2.671817 2.932 
552 664 -4.717326 2.385534 3.307 
568 664 -4.609071 2.079454 2.142 
584 664 -4.102570 2.094100 3.601 
600 664 -3.805587 1.987115 1.664 
616 664 -3.497176 1.817452 3.624 
632 664 -3.357900 1.572412 2.284 
648 664 -3.485672 1.689242 1.333 
664 664 -3.520735 1.718564 1.279 
680 664 -3.853344 1.195147 1.392 
696 664 -3.533421 0.028850 2.294 
712 664 -2.888211 0.121477 2.021 
728 664 -3.262964 0.515576 1.716 
744 664 -3.547584 0.510869 2.463 
760 664 -3.512418 0.347463 2.931 
776 664 -3.357761 -0.016265 2.054 
792 664 -3.197897 0.016940 1.915 
808 664 -3.551661 -0.512601 2.204 
824 664 -3.816600 -0.677413 1.664 
840 664 -4.011334 0.463267 2.384 
856 664 -3.826864 1.576892 1.487 
872 664 -3.048059 1.547222 1.130 
888 664 -2.867653 1.241845 1.282 
904 664 -3.415696 1.303806 2.513 
920 664 -3.643116 1.121923 2.858 
936 664 -3.802094 1.126102 1.559 
952 664 -3.988420 1.332034 1.246 
968 664 -4.129962 1.321308 1.926 
984 664 -4.182472 0.445239 1.925 
1000 664 -4.063138 -0.563507 1.673 
1016 664 -3.814976 -0.636782 1.842 
1032 664 -4.635216 -0.226536 4.329 
1048 664 -5.154500 0.028650 3.657 
1064 664 -5.248761 -0.125737 1.931 
1080 664 -5.091707 -0.610283 1.302 
1096 664 -3.315369 -1.700412 2.877 
1112 664 -3.280575 -2.226530 2.703 
1128 664 -3.264722 -2.412555 2.577 
1144 664 -4.147763 -2.679744 3.394 
1160 664 -5.215346 -2.433437 3.144 
1176 664 -5.399811 -2.165555 4.416 
1192 664 -4.478257 -2.211078 3.509 
1208 664 1.222699 -0.858453 1.011 
1224 664 0.906911 -0.645257 1.049 
1240 664 0.591124 -0.432060 1.340 
1256 664 1.992592 0.939180 1.088 
1272 664 2.870351 0.242830 1.112 
8 648 4.071202 -1.066376 1.046 
24 648 4.399305 -0.163961 1.039 
40 648 4.821470 0.202356 1.157 
56 648 3.905904 0.128800 1.254 
72 648 1.973853 -0.162397 1.100 
88 648 0.011592 -1.971721 1.016 
104 648 -0.596521 -0.837972 1.211 
120 648 -2.509488 3.811889 1.006 
136 648 -4.694316 3.993628 1.123 
152 648 -6.133798 3.114884 1.735 
168 648 -5.766162 2.073424 4.170 
184 648 -5.287879 1.301485 1.472 
200 648 -4.324995 1.005249 1.522 
216 648 -3.956487 0.936490 2.057 
232 648 -3.914057 1.289368 4.150 
248 648 -4.032654 2.070049 1.815 
264 648 -4.114520 2.394082 2.521 
280 648 -4.493837 2.196295 1.504 
296 648 -4.470245 1.774499 1.771 
312 648 -4.301333 1.586581 1.753 
328 648 -4.533724 1.435035 1.635 
344 648 -4.332746 0.937973 2.446 
360 648 -4.575478 0.416080 2.425 
376 648 -4.300611 0.789669 1.571 
392 648 -4.072839 1.346674 1.124 
408 648 -4.101191 1.560923 1.033 
424 648 -3.805961 1.720847 1.646 
440 648 -3.280788 2.071297 1.514 
456 648 -3.009906 2.788945 2.128 
472 648 -2.626955 2.701688 3.576 
488 648 -2.997201 2.923685 3.420 
504 648 -2.891553 2.867810 3.926 
520 648 -2.978562 2.811856 3.345 
536 648 -3.691982 2.579805 1.959 
552 648 -4.205197 2.314420 4.598 
568 648 -3.656025 2.162198 4.639 
584 648 -3.743426 2.223418 1.969 
600 648 -3.994615 2.288492 1.602 
616 648 -4.163118 1.691110 2.393 
632 648 -4.212643 1.335445 2.272 
648 648 -4.253045 1.574326 2.359 
664 648 -4.403850 1.477856 1.625 
680 648 -4.341127 1.143145 1.768 
696 648 -4.118403 -0.011695 2.368 
712 648 -3.444028 0.411042 1.698 
728 648 -4.067228 0.431918 1.558 
744 648 -4.243588 -0.014127 2.350 
760 648 -3.860278 -0.153564 2.241 
776 648 -3.526674 -0.246455 2.064 
792 648 -3.265869 -0.201277 2.641 
808 648 -3.478948 -0.610404 1.825 
824 648 -3.436986 -0.706449 1.764 
840 648 -3.438545 0.102398 1.697 
856 648 -3.519722 1.337851 1.434 
872 648 -3.129155 1.369089 1.522 
888 648 -2.940469 0.763495 1.339 
904 648 -3.352673 0.847284 3.586 
920 648 -3.594236 0.769948 1.678 
936 648 -3.648370 0.877327 1.016 
952 648 -3.950611 1.284517 1.783 
968 648 -4.005472 1.890308 1.928 
984 648 -3.952618 0.932450 1.538 
1000 648 -3.459978 -0.451812 1.253 
1016 648 -2.283689 -0.747994 2.440 
1032 648 -3.156549 0.191155 2.618 
1048 648 -3.914502 0.769049 2.512 
1064 648 -4.237138 0.860910 2.426 
1080 648 -4.533260 0.971156 2.198 
1096 648 -4.591482 0.034879 2.466 
1112 648 -3.285835 -2.093248 2.621 
1128 648 -3.434321 -2.321680 2.785 
1144 648 -3.179694 -2.902448 3.109 
1160 648 -3.646293 -2.633413 3.475 
1176 648 -4.256441 -2.310464 2.395 
1192 648 -3.807912 -2.450334 1.790 
1208 648 -1.085426 -1.453364 1.169 
1224 648 -0.378610 -0.305828 1.116 
1240 648 0.328205 0.841709 1.109 
1256 648 2.654370 0.363283 1.107 
1272 648 2.815895 0.781158 1.328 
8 632 5.048052 -0.160196 1.000 
24 632 3.565288 1.599613 1.005 
40 632 1.315074 3.236636 1.012 
56 632 1.876098 2.189654 1.008 
72 632 0.599002 1.951830 1.093 
88 632 -0.437756 -1.227010 1.079 
104 632 -1.654695 1.143437 1.011 
120 632 -2.468003 4.664325 1.324 
136 632 -4.204647 4.384233 1.184 
152 632 -5.623918 3.318519 1.119 
168 632 -5.749387 2.437974 3.494 
184 632 -5.114281 1.654982 1.640 
200 632 -4.145676 1.149078 1.156 
216 632 -3.265618 0.754548 1.427 
232 632 -3.103459 0.830344 1.956 
248 632 -3.805511 1.453504 2.453 
264 632 -4.029609 1.608631 1.227 
280 632 -4.153154 1.749539 1.141 
296 632 -4.276700 1.890447 1.523 
312 632 -4.112842 1.641253 1.910 
328 632 -4.030012 1.463223 2.159 
344 632 -4.283331 1.245729 1.675 
360 632 -4.267949 1.365498 1.241 
376 632 -3.863635 1.856559 1.295 
392 632 -3.509222 1.777502 2.187 
408 632 -3.528109 1.957200 2.026 
424 632 -3.308055 2.107366 3.760 
440 632 -3.030873 2.389960 1.742 
456 632 -2.603334 2.767195 2.602 
472 632 -2.595420 2.610311 1.117 
488 632 -2.807372 2.445211 1.958 
504 632 -2.883931 2.516371 3.093 
520 632 -3.430291 2.604124 1.493 
536 632 -3.371217 2.237258 1.609 
552 632 -3.917569 2.216830 2.771 
568 632 -3.242567 2.122694 2.195 
584 632 -3.384281 2.352737 2.675 
600 632 -4.226641 2.024812 2.271 
616 632 -4.579416 1.098827 2.695 
632 632 -4.603082 1.079682 1.777 
648 632 -4.626749 1.060537 2.544 
664 632 -4.775430 1.371192 2.493 
680 632 -4.828911 1.091143 1.660 
696 632 -4.747255 1.263174 1.474 
712 632 -3.748684 0.833176 1.627 
728 632 -4.331773 0.025804 1.187 
744 632 -4.457608 -0.213745 1.523 
760 632 -4.165630 -0.483624 1.481 
776 632 -4.013053 -0.617385 1.109 
792 632 -3.883772 -0.373025 2.422 
808 632 -3.573429 -0.169141 1.795 
824 632 -3.613840 -0.236300 1.001 
840 632 -3.306864 0.408432 1.555 
856 632 -3.424364 0.728325 1.900 
872 632 -3.359933 0.417067 1.534 
888 632 -3.067730 0.331738 1.779 
904 632 -3.243020 0.293073 1.992 
920 632 -3.591444 0.162460 3.975 
936 632 -3.765978 0.206893 2.254 
952 632 -3.912803 1.237000 1.141 
968 632 -4.092406 1.679654 1.154 
984 632 -3.825196 1.435708 1.258 
1000 632 -2.344808 0.625653 1.081 
1016 632 -2.451037 0.550483 1.190 
1032 632 -2.557266 0.475314 1.247 
1048 632 -2.541340 1.162246 1.152 
1064 632 -3.008065 1.422370 2.060 
1080 632 -3.671590 1.274758 2.240 
1096 632 -4.423446 0.582204 1.840 
1112 632 -4.333764 -1.071661 2.621 