TITLE = "B00077"
VARIABLES = "x", "y", "u", "v", "sn"
ZONE T="Frame 0", I=80, J=50
8 792 0.000000 -0.000000 1.371 
24 792 5.503617 4.101515 1.345 
40 792 -2.895701 2.368683 1.011 
56 792 -8.299882 -0.315161 1.051 
72 792 -7.043655 -1.130239 1.330 
88 792 -3.288098 -0.058800 1.016 
104 792 -2.803849 0.982995 1.265 
120 792 -2.319601 2.024789 1.000 
136 792 -4.485517 4.648521 1.315 
152 792 -4.316407 3.317845 1.211 
168 792 -3.381287 1.872443 20.000 
184 792 -3.191863 1.131092 1.898 
200 792 -3.061426 -0.000437 1.455 
216 792 -3.271139 -0.773827 1.517 
232 792 -3.912101 -0.668148 2.982 
248 792 -4.305283 -0.608573 1.864 
264 792 -4.481291 -0.821447 11.358 
280 792 -4.559724 -0.608423 4.477 
296 792 -4.735851 -0.168626 2.217 
312 792 -4.559492 -0.125662 3.779 
328 792 -4.544400 -0.569309 2.830 
344 792 -4.529308 -1.012955 3.296 
360 792 -5.731085 -1.818000 3.250 
376 792 -6.682419 -1.489968 2.869 
392 792 -7.245780 -0.679065 2.598 
408 792 -6.981679 0.439609 5.169 
424 792 -6.766531 1.217507 3.053 
440 792 -6.609449 1.566489 2.594 
456 792 -6.469661 1.613295 2.129 
472 792 -6.329873 1.660101 1.094 
488 792 -6.146489 1.365449 4.908 
504 792 -5.739585 1.129476 5.118 
520 792 -5.705963 0.929127 1.323 
536 792 -6.030812 0.937873 1.656 
552 792 -6.000697 1.277209 1.250 
568 792 -5.662983 1.307207 1.206 
584 792 -5.865554 1.410431 1.441 
600 792 -5.994014 -3.696684 1.798 
616 792 -6.122473 -8.803798 1.428 
632 792 -6.187830 0.035967 1.887 
648 792 -6.494200 1.532082 1.991 
664 792 -6.261960 2.582991 1.907 
680 792 -6.039423 2.617193 2.333 
696 792 -5.818763 2.673003 1.684 
712 792 -5.598103 2.728813 1.155 
728 792 -5.377443 2.784623 1.160 
744 792 -5.156782 2.840432 1.009 
760 792 -5.506249 3.307642 2.174 
776 792 -5.614149 5.763135 2.099 
792 792 -5.722049 8.218629 3.584 
808 792 -7.836194 23.669505 1.304 
824 792 -7.973863 23.013029 1.529 
840 792 -8.111531 22.356553 2.642 
856 792 -5.856261 6.447890 1.930 
872 792 -5.281782 3.254768 2.458 
888 792 -4.392329 3.123889 1.658 
904 792 -4.476339 3.117471 1.408 
920 792 -5.198948 2.567422 1.721 
936 792 -5.092323 1.820906 2.045 
952 792 -4.639961 1.081600 1.974 
968 792 -4.104177 0.782147 1.398 
984 792 -4.347734 0.419362 1.911 
1000 792 -4.842838 0.018383 1.854 
1016 792 -5.003965 0.093669 2.043 
1032 792 -5.231155 0.924264 1.808 
1048 792 -5.959322 1.471625 2.350 
1064 792 -7.435227 1.274652 1.963 
1080 792 -8.031919 0.471291 2.617 
1096 792 -7.747205 0.568503 1.768 
1112 792 -7.780870 1.243652 1.300 
1128 792 -7.619178 1.570901 1.531 
1144 792 -5.575256 0.811130 1.531 
1160 792 -3.531334 0.051358 1.268 
1176 792 -7.730010 4.225765 1.292 
1192 792 -11.789896 7.160031 1.183 
1208 792 -14.989917 6.597721 1.318 
1224 792 -9.671270 7.950363 1.184 
1240 792 -4.352623 9.303006 1.020 
1256 792 0.966024 10.655648 1.066 
1272 792 0.000000 -0.000000 1.143 
8 776 0.000000 -0.000000 1.397 
24 776 5.619591 3.896606 1.364 
40 776 -0.930923 1.771164 1.040 
56 776 -6.436088 0.429441 1.053 
72 776 -5.288319 -0.939100 1.327 
88 776 -3.273988 -1.801324 1.026 
104 776 -0.626430 0.486947 1.192 
120 776 -1.872898 1.774339 1.079 
136 776 -3.922528 3.468664 1.412 
152 776 -4.345331 2.810266 1.191 
168 776 -3.625792 1.966267 4.123 
184 776 -3.407323 1.088399 1.918 
200 776 -3.289643 -0.001039 1.420 
216 776 -3.396182 -0.854520 1.448 
232 776 -3.990623 -0.809330 2.921 
248 776 -4.414245 -0.681429 1.881 
264 776 -4.535127 -0.807100 11.499 
280 776 -4.588510 -0.554533 4.783 
296 776 -4.690380 -0.178727 2.222 
312 776 -4.550437 -0.179634 4.066 
328 776 -4.516151 -0.606523 2.910 
344 776 -4.481864 -1.033413 3.174 
360 776 -5.565849 -1.818459 3.447 
376 776 -6.474711 -1.413909 2.902 
392 776 -7.072174 -0.595886 2.517 
408 776 -6.891575 0.501077 4.784 
424 776 -6.866412 1.294593 2.840 
440 776 -6.829960 1.668805 2.488 
456 776 -6.570004 1.746438 2.128 
472 776 -6.567922 1.557720 1.074 
488 776 -6.330846 1.288351 4.842 
504 776 -5.948931 1.077351 4.887 
520 776 -5.865616 0.909036 1.286 
536 776 -6.129979 0.879508 1.730 
552 776 -6.078527 1.181820 1.322 
568 776 -5.755978 1.337932 1.226 
584 776 -5.944641 1.796920 1.397 
600 776 -6.017126 -0.851358 1.837 
616 776 -6.090236 -3.391456 1.496 
632 776 -6.164911 1.268501 1.956 
648 776 -6.466275 2.009319 1.807 
664 776 -6.297893 2.231100 1.771 
680 776 -5.999937 2.139551 2.392 
696 776 -6.158656 1.257691 1.673 
712 776 -5.351497 1.873870 1.199 
728 776 -4.544338 2.490048 1.119 
744 776 -5.160386 2.487998 1.058 
760 776 -5.375382 3.095754 2.092 
776 776 -5.310185 3.025930 2.311 
792 776 -5.422162 5.526525 3.090 
808 776 -6.676141 15.712069 1.304 
824 776 -7.559516 20.369235 1.535 
840 776 -7.271097 16.547743 2.499 
856 776 -5.463529 3.656236 1.933 
872 776 -5.115592 1.965437 2.136 
888 776 -4.484692 2.916004 1.782 
904 776 -4.501702 2.912576 2.465 
920 776 -4.995482 2.476037 1.849 
936 776 -4.850208 1.800310 2.257 
952 776 -4.381440 1.057583 2.020 
968 776 -3.826221 0.633600 1.394 
984 776 -4.048674 0.260719 1.918 
1000 776 -4.576873 -0.193904 1.864 
1016 776 -4.845804 -0.090255 1.992 
1032 776 -5.144785 0.715985 1.819 
1048 776 -5.873815 1.310861 2.439 
1064 776 -7.384041 1.122574 1.997 
1080 776 -8.019353 0.375437 2.539 
1096 776 -7.975045 0.531541 1.766 
1112 776 -7.940358 1.187473 1.283 
1128 776 -7.672531 1.486980 1.539 
1144 776 -5.895184 1.719202 1.551 
1160 776 -4.117837 1.951425 1.235 
1176 776 -9.002382 4.168685 1.310 
1192 776 -12.366299 9.486946 1.149 
1208 776 -11.208064 8.661800 1.261 
1224 776 -7.082182 12.929977 1.102 
1240 776 0.217210 12.867571 1.115 
1256 776 0.511087 5.653839 1.048 
1272 776 1.255795 17.795339 1.080 
8 760 0.000000 -0.000000 1.066 
24 760 5.974996 -0.386070 1.175 
40 760 1.707921 1.224663 1.091 
56 760 -2.049723 0.074874 1.948 
72 760 -3.532982 -0.747961 1.047 
88 760 -1.698298 0.218081 1.617 
104 760 0.136387 1.184123 1.077 
120 760 -0.518987 2.296886 1.075 
136 760 -3.359538 2.288807 1.233 
152 760 -4.374255 2.302687 1.055 
168 760 -4.739037 2.258546 1.238 
184 760 -3.849030 1.214033 1.408 
200 760 -4.029248 -0.022577 1.557 
216 760 -3.880622 -0.659346 1.677 
232 760 -4.165945 -0.752974 1.444 
248 760 -4.974251 -0.527031 1.267 
264 760 -4.673923 -0.686983 2.927 
280 760 -4.674406 -0.397725 2.748 
296 760 -4.649085 -0.015782 2.793 
312 760 -4.735168 -0.133368 3.943 
328 760 -4.576876 -0.595641 3.678 
344 760 -4.764577 -1.045482 2.931 
360 760 -5.433345 -1.475911 3.787 
376 760 -6.319883 -1.250573 3.267 
392 760 -6.824879 -0.504690 3.688 
408 760 -6.897254 0.762326 3.192 
424 760 -7.058234 1.517995 2.307 
440 760 -7.156583 1.754951 3.171 
456 760 -7.370348 1.579688 2.631 
472 760 -7.240434 1.194377 2.123 
488 760 -6.671830 1.091730 4.491 
504 760 -6.217743 0.921933 2.250 
520 760 -6.158188 0.770112 1.073 
536 760 -6.294238 0.768264 1.462 
552 760 -6.227613 0.890722 1.657 
568 760 -6.183492 1.106133 1.483 
584 760 -6.023728 2.183410 1.201 
600 760 -6.040238 1.993967 2.715 
616 760 -6.057999 2.020885 2.232 
632 760 -6.126089 1.604180 1.603 
648 760 -6.332042 1.825999 1.167 
664 760 -6.378903 1.669505 1.374 
680 760 -6.241507 1.935366 1.228 
696 760 -6.009799 1.502852 1.837 
712 760 -5.776275 1.286868 1.145 
728 760 -5.599851 1.676745 1.020 
744 760 -5.551459 2.332739 2.078 
760 760 -5.539822 3.187634 1.419 
776 760 -5.465794 3.276815 1.553 
792 760 -5.107750 3.458073 1.475 
808 760 -5.516089 7.754634 1.004 
824 760 -6.055086 10.711088 1.274 
840 760 -6.245140 8.968773 1.081 
856 760 -5.193174 1.144297 1.120 
872 760 -4.949402 0.676105 1.055 
888 760 -4.943952 2.739294 1.400 
904 760 -4.711965 2.514574 3.006 
920 760 -4.419623 2.532110 2.800 
936 760 -4.455101 2.118945 2.279 
952 760 -4.264291 1.084784 1.099 
968 760 -3.579795 0.662062 1.457 
984 760 -3.760899 0.081721 2.099 
1000 760 -4.345066 -0.580707 2.244 
1016 760 -4.641989 -0.435991 2.403 
1032 760 -4.843481 0.360516 2.468 
1048 760 -5.367276 0.983286 3.184 
1064 760 -6.589928 0.862385 1.966 
1080 760 -7.747439 0.233791 1.727 
1096 760 -7.839539 0.107471 1.677 
1112 760 -7.643436 0.673829 1.152 
1128 760 -6.911601 1.400704 1.093 
1144 760 -5.758148 1.211151 1.183 
1160 760 -4.456385 2.656406 1.104 
1176 760 -7.201148 3.048027 1.120 
1192 760 -13.595978 6.585561 1.007 
1208 760 -7.426212 10.725880 1.311 
1224 760 -3.515207 9.847553 1.059 
1240 760 0.151212 10.915954 1.018 
1256 760 0.056151 0.652030 1.147 
1272 760 0.335275 -1.438739 1.091 
8 744 8.753975 -1.177964 1.085 
24 744 6.642527 -0.772689 1.020 
40 744 3.751137 1.522945 1.798 
56 744 -0.478230 1.373847 2.547 
72 744 -2.589754 0.840536 1.162 
88 744 -0.985369 1.152595 1.349 
104 744 0.619015 1.464653 1.437 
120 744 -0.482315 -0.662072 1.184 
136 744 -3.159309 0.786978 1.316 
152 744 -4.074955 0.440115 1.053 
168 744 -4.870786 1.307153 1.545 
184 744 -4.998244 0.907636 1.039 
200 744 -5.125702 0.508120 4.572 
216 744 -4.532231 -0.312934 1.820 
232 744 -4.450944 -0.452354 2.254 
248 744 -4.825655 -0.425932 1.803 
264 744 -4.827669 -0.173287 1.054 
280 744 -4.713373 -0.138343 2.264 
296 744 -4.580959 -0.250992 2.221 
312 744 -4.730429 -0.603733 1.530 
328 744 -5.169630 -0.923693 2.060 
344 744 -5.362276 -1.015889 1.995 
360 744 -5.534335 -1.208391 2.879 
376 744 -6.070791 -0.883575 2.373 
392 744 -6.503091 -0.083068 2.154 
408 744 -6.880293 0.557489 1.975 
424 744 -7.242613 0.990812 2.742 
440 744 -7.579164 1.318378 2.732 
456 744 -7.673235 1.219694 2.059 
472 744 -7.134245 0.953886 1.524 
488 744 -6.665554 0.784854 1.748 
504 744 -6.510506 0.742381 2.910 
520 744 -6.698526 0.715960 1.961 
536 744 -6.719550 0.794927 1.396 
552 744 -6.777355 0.792205 1.050 
568 744 -6.648932 0.636821 1.140 
584 744 -6.316825 1.336043 2.055 
600 744 -6.249546 2.040843 2.305 
616 744 -6.310607 2.306616 2.715 
632 744 -6.295866 1.882397 2.149 
648 744 -6.558356 1.936578 1.230 
664 744 -6.383067 1.297953 1.318 
680 744 -6.146595 1.214760 1.671 
696 744 -6.245016 0.954835 1.658 
712 744 -6.300469 0.938160 1.664 
728 744 -6.098131 1.462064 1.539 
744 744 -5.926429 2.379266 2.136 
760 744 -5.852763 3.582536 1.520 
776 744 -5.621402 3.527700 1.106 
792 744 -4.945061 2.621397 1.593 
808 744 -4.691754 2.405991 2.335 
824 744 -4.752094 2.043903 2.032 
840 744 -5.219183 1.389803 1.168 
856 744 -5.089227 1.839234 1.100 
872 744 -5.028008 1.532169 1.255 
888 744 -5.079278 2.972188 1.553 
904 744 -4.949256 3.024184 2.343 
920 744 -4.586194 2.864889 1.510 
936 744 -4.393318 2.432395 1.863 
952 744 -4.340841 1.262401 1.635 
968 744 -3.897519 0.581856 1.085 
984 744 -4.031402 -0.399706 1.342 
1000 744 -4.795195 -1.186459 1.247 
1016 744 -4.698138 -1.183896 2.705 
1032 744 -4.555888 -0.257116 3.106 
1048 744 -4.884875 0.478220 2.503 
1064 744 -6.008864 0.324762 2.466 
1080 744 -7.082172 -0.147495 2.609 
1096 744 -7.213021 -0.282414 2.182 
1112 744 -7.242303 0.210116 1.336 
1128 744 -6.353042 0.777288 1.020 
1144 744 -5.097664 0.796482 1.320 
1160 744 -4.540398 2.050686 1.069 
1176 744 -3.196192 2.767643 1.053 
1192 744 -1.851987 3.484599 1.264 
1208 744 0.307929 5.748664 1.131 
1224 744 0.051767 6.765129 1.444 
1240 744 -0.281376 6.280783 1.694 
1256 744 -0.516616 4.999961 1.101 
1272 744 0.082278 5.875467 1.051 
8 728 7.044532 -1.077227 1.031 
24 728 4.790808 -0.647475 1.077 
40 728 2.074027 4.650528 1.159 
56 728 -1.263194 3.506964 1.275 
72 728 -3.644826 -1.930238 1.238 
88 728 -1.542906 -0.905261 1.048 
104 728 0.559013 0.119715 1.465 
120 728 -0.801249 -1.377588 1.330 
136 728 -2.959079 -0.714850 3.371 
152 728 -5.892542 1.400273 4.137 
168 728 -5.591178 1.222659 1.001 
184 728 -5.289814 1.045044 1.508 
200 728 -4.988449 0.867430 3.274 
216 728 -4.883243 0.167056 2.987 
232 728 -4.482214 0.025454 2.972 
248 728 -4.507615 0.075134 2.665 
264 728 -4.966937 0.406940 1.284 
280 728 -4.852605 0.214775 2.881 
296 728 -4.861159 -0.341775 2.360 
312 728 -4.975862 -0.776705 1.479 
328 728 -5.514857 -1.140449 1.289 
344 728 -5.402390 -1.064737 1.511 
360 728 -5.293707 -1.340036 1.865 
376 728 -5.413376 -0.770773 2.463 
392 728 -6.128226 0.106720 1.746 
408 728 -7.251307 0.397478 1.409 
424 728 -7.424406 0.565787 1.005 
440 728 -7.478615 0.872932 2.326 
456 728 -7.457228 0.494400 1.438 
472 728 -6.886117 0.592567 1.472 
488 728 -6.786970 0.618306 2.965 
504 728 -7.028227 0.756787 2.306 
520 728 -7.671493 1.003567 1.923 
536 728 -7.120331 1.009372 1.568 
552 728 -7.132581 0.965816 1.731 
568 728 -6.885640 0.877420 2.881 
584 728 -6.157590 0.919136 1.481 
600 728 -6.100489 1.953038 1.102 
616 728 -6.563216 2.592346 1.801 
632 728 -6.579918 2.627766 1.802 
648 728 -6.939885 2.083377 2.067 
664 728 -6.878314 1.571230 1.315 
680 728 -6.391747 1.647460 1.793 
696 728 -5.943792 1.058136 2.799 
712 728 -5.990336 1.045304 1.449 
728 728 -6.036881 1.032473 1.527 
744 728 -5.849914 1.853610 1.180 
760 728 -5.847190 3.373328 2.073 
776 728 -5.850647 3.454984 1.420 
792 728 -5.492857 3.712096 1.431 
808 728 -5.095268 2.823155 3.164 
824 728 -5.002985 1.923474 2.632 
840 728 -5.299683 2.274605 2.750 
856 728 -4.985279 2.534170 2.220 
872 728 -4.426796 2.992509 2.338 
888 728 -4.704085 3.519954 2.047 
904 728 -5.129494 3.660338 2.471 
920 728 -4.994912 3.407301 1.318 
936 728 -4.947075 2.822538 2.624 
952 728 -5.021312 1.534520 1.919 
968 728 -4.392629 0.587463 1.145 
984 728 -4.850594 -0.470035 1.089 
1000 728 -5.245325 -1.792212 1.700 
1016 728 -4.924551 -1.354802 2.693 
1032 728 -4.603778 -0.917392 1.903 
1048 728 -4.859006 -0.152698 2.640 
1064 728 -5.576471 -0.140330 3.742 
1080 728 -6.241846 -0.283471 3.452 
1096 728 -6.560530 -0.308881 1.853 
1112 728 -6.183213 0.050438 1.906 
1128 728 -5.517347 0.448978 1.433 
1144 728 -4.803901 0.769871 2.108 
1160 728 -4.579373 1.493139 2.547 
1176 728 -3.695616 1.450609 2.311 
1192 728 -2.191640 1.310393 1.461 
1208 728 0.086507 1.967372 1.350 
1224 728 0.086719 4.535978 1.185 
1240 728 -0.776995 4.952122 1.145 
1256 728 -0.210016 5.515104 1.051 
1272 728 1.678547 5.912436 1.042 
8 712 4.795469 -1.843045 1.668 
24 712 2.915712 -1.657689 1.582 
40 712 0.743539 4.305430 1.036 
56 712 -2.048158 5.640081 1.094 
72 712 -3.018047 0.532594 1.217 
88 712 -2.269652 -1.361562 1.053 
104 712 0.197027 -0.042387 1.020 
120 712 -0.466755 -0.980480 1.249 
136 712 -5.034603 1.460888 6.916 
152 712 -6.695861 2.241053 3.700 
168 712 -5.188724 1.414473 1.015 
184 712 -5.019960 1.320607 1.103 
200 712 -4.851197 1.226741 3.083 
216 712 -4.820235 0.810150 2.660 
232 712 -4.323805 0.661031 2.216 
248 712 -4.337751 0.599703 1.973 
264 712 -4.923805 0.603722 1.737 
280 712 -5.137443 0.047369 1.722 
296 712 -5.045927 -0.516554 2.622 
312 712 -5.447339 -0.661069 2.256 
328 712 -5.519239 -1.059231 1.836 
344 712 -5.442504 -1.113585 1.521 
360 712 -5.418047 -1.764949 1.615 
376 712 -5.390122 -1.285983 1.708 
392 712 -6.174025 -0.393474 3.020 
408 712 -7.344648 0.346063 2.734 
424 712 -7.435009 0.633485 1.915 
440 712 -7.378066 0.427486 1.594 
456 712 -7.334377 0.380274 1.649 
472 712 -7.083615 0.640730 1.367 
488 712 -7.068073 0.755135 2.365 
504 712 -7.720593 0.974354 1.873 
520 712 -8.204687 1.310981 2.457 
536 712 -7.521112 1.223818 1.178 
552 712 -7.105163 1.170211 4.199 
568 712 -6.782579 0.829213 1.535 
584 712 -6.191497 0.733285 1.743 
600 712 -6.195133 1.515943 1.047 
616 712 -6.513804 2.170643 1.589 
632 712 -7.052731 2.240977 1.196 
648 712 -7.618625 2.415069 3.305 
664 712 -7.599798 1.929818 3.554 
680 712 -6.742198 1.818383 1.787 
696 712 -6.122507 1.054949 1.579 
712 712 -5.955117 1.078512 1.030 
728 712 -5.812082 0.679671 1.802 
744 712 -5.686321 0.180317 1.036 
760 712 -5.837540 2.630337 1.212 
776 712 -6.079892 3.382267 1.194 
792 712 -5.953645 2.774493 1.478 
808 712 -5.396601 2.240292 3.168 
824 712 -5.212794 2.348594 2.958 
840 712 -5.235759 2.554202 1.349 
856 712 -4.524024 2.919113 1.219 
872 712 -3.987013 3.407901 2.704 
888 712 -4.078648 3.774268 2.034 
904 712 -4.915158 3.744659 1.967 
920 712 -5.603882 3.090454 2.465 
936 712 -6.073117 2.969924 1.654 
952 712 -5.749814 2.401537 1.411 
968 712 -5.437211 1.278371 2.312 
984 712 -6.049909 0.025782 1.429 
1000 712 -5.597719 -1.632810 1.026 
1016 712 -5.040756 -1.449526 1.201 
1032 712 -4.483794 -1.266242 1.757 
1048 712 -4.854319 -0.452915 1.885 
1064 712 -5.358620 -0.311047 2.451 
1080 712 -5.744122 -0.232959 1.657 
1096 712 -5.959557 -0.215578 8.669 
1112 712 -5.713668 0.222202 2.670 
1128 712 -4.892418 0.657876 2.553 
1144 712 -4.510138 0.743261 2.172 
1160 712 -4.618349 0.935592 2.668 
1176 712 -4.354809 0.990749 1.715 
1192 712 -2.681085 0.958242 1.428 
1208 712 1.013679 2.280372 1.086 
1224 712 0.106339 2.529305 1.001 
1240 712 -0.801002 2.778238 1.537 
1256 712 0.096584 6.030246 1.004 
1272 712 3.274817 5.949406 1.034 
8 696 1.265985 -3.380811 1.687 
24 696 0.768505 -3.193260 1.743 
40 696 0.555001 1.510814 1.038 
56 696 -2.710777 -1.140175 1.262 
72 696 -3.035967 -1.626118 1.152 
88 696 -3.361157 -2.112062 1.296 
104 696 -1.896489 0.896785 1.293 
120 696 -2.613098 0.757443 1.142 
136 696 -5.542738 2.337200 1.909 
152 696 -5.792967 2.453424 3.187 
168 696 -5.199244 2.074415 2.952 
184 696 -4.484905 1.428673 2.463 
200 696 -4.360196 1.278306 2.551 
216 696 -4.582288 0.982103 1.805 
232 696 -4.088905 0.608342 1.847 
248 696 -4.328382 0.594521 1.451 
264 696 -5.002632 0.537686 1.107 
280 696 -5.122736 -0.169157 2.035 
296 696 -4.661961 -0.462656 5.339 
312 696 -4.960303 -0.902959 6.154 
328 696 -5.526087 -1.020462 3.238 
344 696 -5.698423 -1.516444 3.116 
360 696 -5.542387 -2.189862 2.376 
376 696 -5.504213 -1.688248 1.174 
392 696 -6.823767 -0.571072 2.721 
408 696 -7.000843 0.499801 2.786 
424 696 -6.896776 1.247754 2.016 
440 696 -6.857422 0.924005 2.267 
456 696 -7.121069 0.390754 1.504 
472 696 -7.163744 0.793740 2.108 
488 696 -7.097114 0.776485 1.846 
504 696 -7.455908 0.870432 1.182 
520 696 -6.613831 1.252773 1.974 
536 696 -6.091328 1.121629 1.106 
552 696 -6.347170 1.053553 1.011 
568 696 -6.545297 0.679872 1.571 
584 696 -6.233834 0.623730 1.706 
600 696 -6.077642 1.116276 2.136 
616 696 -6.465517 1.606146 1.635 
632 696 -7.124412 1.488376 2.579 
648 696 -7.806073 1.889038 2.807 
664 696 -7.463910 2.230123 2.003 
680 696 -7.666552 3.183132 1.622 
696 696 -6.507990 3.014059 1.184 
712 696 -5.705963 1.148114 1.105 
728 696 -5.587282 0.326870 1.408 
744 696 -5.738794 0.285894 1.402 
760 696 -5.930333 1.731188 1.193 
776 696 -6.171897 2.276881 1.553 
792 696 -6.000866 1.430829 2.152 
808 696 -5.424685 1.616190 2.408 
824 696 -5.432767 2.325189 2.258 
840 696 -5.482611 2.630470 1.874 
856 696 -4.376811 3.281666 1.345 
872 696 -4.096753 3.541109 2.438 
888 696 -4.505784 3.569734 3.139 
904 696 -4.447348 2.961515 1.690 
920 696 -5.690872 2.534396 1.553 
936 696 -6.010419 2.881671 1.341 
952 696 -5.715386 2.929267 1.255 
968 696 -5.890833 1.926398 2.390 
984 696 -6.410068 0.291553 1.127 
1000 696 -6.305323 -1.326898 1.503 
1016 696 -5.314287 -1.659940 1.274 
1032 696 -4.717572 -0.945933 1.396 
1048 696 -4.523539 -0.296062 3.242 
1064 696 -4.552768 0.169187 1.833 
1080 696 -4.704711 -0.054289 1.249 
1096 696 -5.053151 -0.227611 1.823 
1112 696 -5.346770 0.343573 2.789 
1128 696 -4.903472 0.616686 2.451 
1144 696 -4.695645 1.120088 2.282 
1160 696 -4.650273 1.060404 2.489 
1176 696 -4.686047 0.844867 1.836 
1192 696 -3.705148 0.915398 1.178 
1208 696 -0.295595 1.761196 1.019 
1224 696 -0.355913 1.373299 1.040 
1240 696 -0.416231 0.985403 1.158 
1256 696 0.403184 6.545389 1.001 
1272 696 4.871086 5.986375 1.022 
8 680 -5.927137 -5.930286 1.660 
24 680 -0.398864 -0.310453 1.706 
40 680 0.869000 -0.101219 1.007 
56 680 -2.469961 -3.096290 1.092 
72 680 -3.346133 -1.812598 1.020 
88 680 -4.222306 -0.528906 1.058 
104 680 -4.250131 2.257543 1.084 
120 680 -4.759442 2.495366 1.812 
136 680 -5.064310 2.792989 1.375 
152 680 -5.030795 2.807371 1.357 
168 680 -4.335488 2.124622 1.136 
184 680 -4.089131 1.382277 2.738 
200 680 -4.104187 0.933842 3.468 
216 680 -4.277918 0.583532 1.993 
232 680 -3.867758 0.464451 2.072 
248 680 -3.985669 0.620022 1.119 
264 680 -4.893294 0.591434 1.432 
280 680 -4.927837 -0.487011 1.052 
296 680 -4.736529 -0.865961 6.400 
312 680 -4.843155 -1.215041 5.436 
328 680 -5.464169 -1.539234 2.789 
344 680 -5.954342 -1.919303 1.945 
360 680 -6.143478 -2.210820 1.776 
376 680 -6.971242 -1.243135 1.709 
392 680 -6.483829 0.100757 1.278 
408 680 -6.435808 0.908487 1.690 
424 680 -6.387787 1.716217 1.248 
440 680 -6.405458 1.105023 2.577 
456 680 -6.753320 0.946208 2.637 
472 680 -6.887598 0.933885 1.202 
488 680 -6.929343 0.746028 1.173 
504 680 -6.950839 0.673231 1.011 
520 680 -5.561508 0.628321 1.308 
536 680 -5.568635 0.692673 1.359 
552 680 -5.844512 0.734714 1.811 
568 680 -5.970068 0.604801 1.516 
584 680 -6.039240 0.640176 2.535 
600 680 -5.675863 1.010868 2.385 
616 680 -5.715706 1.086650 3.893 
632 680 -6.183121 1.016183 3.268 
648 680 -6.808317 1.470930 2.113 
664 680 -7.328021 2.530428 1.361 
680 680 -7.340850 3.504202 1.229 
696 680 -6.562952 5.459926 2.142 
712 680 -6.025014 5.628732 1.186 
728 680 -5.975021 1.072269 1.100 
744 680 -6.065791 1.492926 1.107 
760 680 -6.400729 1.197964 2.258 
776 680 -6.263901 1.171494 2.282 
792 680 -5.955083 0.862633 2.460 
808 680 -5.222413 1.336049 2.192 
824 680 -5.176192 1.878951 1.557 
840 680 -5.283042 2.570089 2.070 
856 680 -4.598692 3.102547 1.688 
872 680 -5.041200 3.114808 2.515 
888 680 -5.959658 2.746469 2.341 
904 680 -6.402332 2.163991 2.615 
920 680 -5.885553 1.553415 2.284 
936 680 -6.101214 2.139766 3.609 
952 680 -5.899935 2.728588 3.537 
968 680 -6.105730 2.215749 3.739 
984 680 -6.576518 0.554785 1.088 
1000 680 -6.962950 -0.754807 1.898 
1016 680 -6.145267 -0.632154 2.175 
1032 680 -5.140112 -0.045327 2.705 
1048 680 -4.584311 0.559363 1.786 
1064 680 -4.795129 0.597523 2.599 
1080 680 -4.672584 -0.233713 1.407 
1096 680 -4.631580 -0.529761 1.725 
1112 680 -5.186904 -0.185060 2.184 
1128 680 -5.236487 0.580889 2.270 
1144 680 -5.034234 0.993732 2.141 
1160 680 -5.075943 0.706487 1.084 
1176 680 -5.686823 0.364555 2.885 
1192 680 -5.856855 0.407218 5.280 
1208 680 -3.677393 0.593347 2.451 
1224 680 -0.963834 0.270588 1.373 
1240 680 0.410714 -0.277644 1.050 
1256 680 0.388613 4.182101 1.004 
1272 680 4.203174 4.575380 1.038 
8 664 -13.120259 -8.479762 1.057 
24 664 -7.669797 -4.260403 1.098 
40 664 -5.520264 -2.352759 1.066 
56 664 -1.223934 0.154251 1.031 
72 664 -2.485831 1.561502 1.033 
88 664 -3.236715 2.372030 2.075 
104 664 -3.987600 3.182557 1.079 
120 664 -4.053143 2.767491 1.341 
136 664 -3.971533 2.929973 3.116 
152 664 -3.332307 2.492285 1.722 
168 664 -2.824228 2.041290 1.282 
184 664 -3.814832 1.384414 1.747 
200 664 -4.173723 0.880472 1.485 
216 664 -4.327151 0.546639 1.990 
232 664 -3.542753 0.436262 1.556 
248 664 -3.764972 0.549912 1.276 
264 664 -4.544212 0.445145 1.262 
280 664 -5.241089 -0.747345 1.022 
296 664 -4.811096 -1.269266 3.953 
312 664 -4.885954 -1.465525 2.292 
328 664 -5.337239 -1.658428 1.625 
344 664 -5.151587 -1.595176 2.255 
360 664 -5.148492 -1.224327 2.486 
376 664 -6.032068 -0.799337 1.665 
392 664 -6.044376 0.599193 1.194 
408 664 -6.208175 0.791262 2.380 
424 664 -6.371974 0.983331 1.086 
440 664 -6.203179 0.835989 1.621 
456 664 -6.326339 1.007481 2.210 
472 664 -6.709453 0.868533 1.798 
488 664 -6.894148 0.787412 1.136 
504 664 -6.718707 0.568371 1.419 
520 664 -5.675465 0.438404 1.220 
536 664 -5.401608 0.431398 1.177 
552 664 -5.576022 0.478178 1.162 
568 664 -5.407744 0.797087 2.598 
584 664 -5.395503 0.982048 3.138 
600 664 -4.981911 1.193337 2.739 
616 664 -5.041727 0.916688 5.718 
632 664 -5.291798 0.518048 3.088 
648 664 -5.319355 0.458620 4.018 
664 664 -6.112826 1.009150 1.504 
680 664 -7.015148 3.825271 1.033 
696 664 -6.617914 7.905794 1.747 
712 664 -6.344065 10.109349 1.102 
728 664 -6.362760 1.817669 1.413 
744 664 -6.731614 0.973053 2.916 
760 664 -6.742655 1.110827 2.021 
776 664 -6.229057 0.978187 1.826 
792 664 -5.372785 1.044435 2.299 
808 664 -4.755245 1.163696 2.947 
824 664 -4.330456 1.656650 1.667 
840 664 -4.216063 2.231321 1.790 
856 664 -4.616072 2.577507 1.788 
872 664 -5.528768 2.652851 1.262 
888 664 -7.064076 1.955391 2.659 
904 664 -7.064483 1.448972 2.972 
920 664 -6.217662 1.257633 2.059 
936 664 -6.056043 1.643131 2.031 
952 664 -6.066146 2.579908 2.185 
968 664 -6.373314 2.340008 2.066 
984 664 -7.697837 0.601860 1.427 
1000 664 -7.802616 -0.090961 1.309 
1016 664 -7.136514 0.176075 1.401 
1032 664 -6.050653 0.955965 2.078 
1048 664 -5.462215 1.377995 2.871 
1064 664 -5.037489 1.025859 2.669 
1080 664 -4.640458 -0.413136 3.756 
1096 664 -5.060913 -0.702167 3.982 
1112 664 -5.030288 -0.657558 2.446 
1128 664 -4.988204 0.430837 3.015 
1144 664 -5.388854 0.803346 3.013 
1160 664 -5.644366 0.430662 3.355 
1176 664 -6.650392 0.281492 1.961 
1192 664 -7.040180 0.465674 5.030 
1208 664 -5.012277 0.588537 2.548 
1224 664 -2.080781 -0.252302 1.056 
1240 664 0.262544 -1.430193 1.021 
1256 664 0.374041 1.818813 1.115 
1272 664 3.535262 3.164385 1.193 
8 648 -8.347277 -4.742947 1.059 
24 648 -8.313814 -5.717312 1.018 
40 648 -5.357913 -1.818645 1.181 
56 648 -2.402011 2.080021 1.171 
72 648 -3.861350 3.349599 2.236 
88 648 -3.943613 3.552193 2.334 
104 648 -4.025876 3.754787 1.007 
120 648 -3.499199 3.505542 1.329 
136 648 -2.972522 3.256297 2.187 
152 648 -2.544654 3.293443 1.785 
168 648 -1.253707 2.020612 2.672 
184 648 -2.206298 1.486315 1.036 
200 648 -3.374299 0.862029 1.170 
216 648 -4.219339 0.484351 1.142 
232 648 -3.410420 0.338513 1.623 
248 648 -3.633181 0.553605 1.513 
264 648 -5.146109 0.556446 1.080 
280 648 -5.646059 -1.019649 1.294 
296 648 -5.239390 -1.856670 1.890 
312 648 -5.356683 -1.778904 1.390 
328 648 -5.196973 -1.724916 1.045 
344 648 -5.136704 -1.520616 2.029 
360 648 -5.229978 -1.037017 3.188 
376 648 -5.419619 -0.440669 3.298 
392 648 -6.065561 0.363176 1.551 
408 648 -6.192361 0.058376 1.623 
424 648 -6.356160 0.250445 1.308 
440 648 -6.154248 0.173039 2.211 
456 648 -6.279514 0.211825 2.176 
472 648 -6.483966 0.927444 1.952 
488 648 -6.862376 0.967947 1.816 
504 648 -6.665709 0.691684 1.599 
520 648 -5.855087 0.450799 1.589 
536 648 -5.391985 0.345499 2.116 
552 648 -5.242338 0.477982 2.121 
568 648 -4.899941 0.982112 1.882 
584 648 -5.011025 1.118807 1.858 
600 648 -4.938293 1.314055 1.251 
616 648 -4.766345 1.079076 1.295 
632 648 -4.824728 0.261395 3.181 
648 648 -5.282659 0.133804 3.566 
664 648 -4.861297 -0.475348 2.249 
680 648 -5.561251 0.294864 1.650 
696 648 -6.479995 2.321876 1.470 
712 648 -6.504289 2.063591 1.761 
728 648 -6.364829 1.618814 1.958 
744 648 -6.692206 1.012291 3.938 
760 648 -7.084581 1.023691 2.220 
776 648 -6.227981 1.154121 2.975 
792 648 -5.162335 1.227386 1.170 
808 648 -4.741531 1.162889 1.444 
824 648 -4.514247 1.478154 2.619 
840 648 -4.778988 1.851311 1.034 
856 648 -5.359864 2.563457 2.701 
872 648 -5.854338 2.361661 2.803 
888 648 -6.903404 1.810399 1.565 
904 648 -6.621161 1.517054 1.923 
920 648 -5.783350 1.454440 1.609 
936 648 -6.111448 2.134431 1.194 
952 648 -6.268001 2.588959 2.597 
968 648 -6.614060 2.230698 2.502 
984 648 -7.622186 0.804691 2.836 
1000 648 -7.900534 0.269731 2.718 
1016 648 -7.355671 0.902343 1.653 
1032 648 -6.663857 1.703821 1.895 
1048 648 -6.200821 2.159364 3.908 
1064 648 -6.003173 1.776667 3.292 
1080 648 -5.597143 -0.061434 3.262 
1096 648 -5.490246 -0.874572 3.288 
1112 648 -5.200719 -0.343817 2.056 
1128 648 -5.032218 0.619132 3.322 
1144 648 -5.566631 0.896416 2.192 
1160 648 -5.891815 0.267389 2.097 
1176 648 -6.958225 0.597580 4.329 
1192 648 -6.452926 1.233324 2.524 
1208 648 -5.947627 1.869068 1.375 
1224 648 -3.086499 -0.818068 1.073 
1240 648 -0.652068 -1.892027 1.143 
1256 648 0.359470 -0.544474 1.405 
1272 648 2.867350 1.753390 1.390 
8 632 -3.455258 -0.979162 1.032 
24 632 -2.015258 -3.035708 1.091 
40 632 -2.899518 0.041404 1.137 
56 632 -3.783778 3.118517 1.193 
72 632 -5.364647 3.605114 2.635 
88 632 -4.716475 3.610689 2.143 
104 632 -4.068302 3.616265 2.894 
120 632 -3.629019 3.486721 1.306 
136 632 -3.189736 3.357177 1.861 
152 632 -2.460543 3.348141 1.961 
168 632 -1.837884 2.350144 1.755 
184 632 -2.569724 1.700231 1.195 
200 632 -2.328571 1.102252 1.225 
216 632 -2.924581 0.762552 1.211 
232 632 -2.385974 0.249149 1.715 
248 632 -3.386203 0.250294 2.654 
264 632 -4.946913 0.007220 1.037 
280 632 -5.958979 -0.706559 1.421 
296 632 -5.689570 -1.542754 1.140 
312 632 -5.768945 -1.731031 1.310 
328 632 -5.558541 -1.780986 1.385 
344 632 -5.121822 -1.446055 1.808 
360 632 -5.206818 -1.118750 2.429 
376 632 -5.291815 -0.791445 2.562 
392 632 -6.280400 -0.717374 1.779 
408 632 -6.275572 -0.128473 1.093 
424 632 -6.340347 -0.482440 1.524 
440 632 -6.385300 -0.954573 2.341 
456 632 -6.232689 -0.583831 1.373 
472 632 -5.875106 0.919422 1.154 
488 632 -6.469291 1.177884 1.082 
504 632 -6.332472 0.726289 1.006 
520 632 -5.593611 0.337057 1.903 
536 632 -5.190191 0.345622 1.541 
552 632 -4.856363 0.688086 1.452 
568 632 -5.002309 1.030139 1.142 
584 632 -4.975297 1.426201 1.068 
600 632 -5.220514 1.092309 1.423 
616 632 -4.926926 1.132763 1.225 
632 632 -5.255467 0.429681 2.894 
648 632 -5.245962 -0.191012 1.660 
664 632 -5.008064 -0.074247 1.990 
680 632 -5.339612 1.041895 1.319 
696 632 -5.682516 1.694265 1.004 
712 632 -5.918000 1.746902 2.223 
728 632 -6.366897 1.419959 1.932 
744 632 -6.652799 1.051528 2.642 
760 632 -6.841478 1.446049 2.945 
776 632 -5.847404 1.591652 2.419 
792 632 -5.054934 1.624873 1.395 
808 632 -4.766851 1.448095 1.852 
824 632 -4.698037 1.299659 1.659 
840 632 -5.083429 1.646326 1.493 
856 632 -5.627065 2.108460 1.985 
872 632 -5.995540 2.637663 1.489 
888 632 -6.611141 2.632613 1.403 
904 632 -6.655652 2.153700 2.325 
920 632 -6.199657 2.042566 1.368 
936 632 -6.166853 2.625731 1.342 
952 632 -6.469856 2.598010 1.263 
968 632 -6.967235 1.620810 3.160 
984 632 -7.078043 0.320775 1.930 
1000 632 -7.622124 0.385182 1.110 
1016 632 -7.089993 1.135154 1.854 
1032 632 -6.872793 2.023600 2.061 
1048 632 -6.815083 2.491813 3.973 
1064 632 -7.002110 1.900307 2.834 
1080 632 -6.751794 0.536682 1.605 
1096 632 -6.655469 0.239915 1.066 
1112 632 -5.994043 0.431982 1.671 
1128 632 -5.855182 0.962228 2.572 