TITLE = "B00007"
VARIABLES = "x", "y", "u", "v", "sn"
ZONE T="Frame 0", I=80, J=50
8 792 0.000000 -0.000000 1.401 
24 792 0.221677 0.553847 1.453 
40 792 1.223628 -0.364763 1.264 
56 792 1.369890 -0.011062 1.452 
72 792 1.516153 0.342639 1.245 
88 792 1.049488 1.916576 1.080 
104 792 0.582822 3.490513 1.022 
120 792 -1.419769 3.376824 1.174 
136 792 -3.422360 3.263134 1.099 
152 792 -5.424951 3.149445 1.198 
168 792 -4.117485 3.580915 1.163 
184 792 -3.881089 3.380946 1.398 
200 792 -3.644694 3.180977 1.353 
216 792 -3.307423 2.897084 2.782 
232 792 -3.222515 2.942321 1.907 
248 792 -3.683250 3.605857 2.136 
264 792 -4.212063 4.093709 1.358 
280 792 -4.505486 2.565015 1.037 
296 792 -4.560273 0.644772 3.317 
312 792 -4.625664 1.301578 1.493 
328 792 -3.955297 2.349753 1.485 
344 792 -3.734885 1.571674 1.982 
360 792 -3.627825 1.330804 2.132 
376 792 -3.520765 1.089935 2.711 
392 792 -3.281579 2.234032 1.330 
408 792 -3.723442 2.183913 1.818 
424 792 -3.914327 1.691381 2.863 
440 792 -3.864662 1.652452 2.076 
456 792 -3.292436 2.266876 2.368 
472 792 -2.759897 3.038729 1.064 
488 792 -2.146786 3.309886 1.183 
504 792 -1.750212 3.345472 2.399 
520 792 -1.750805 3.136235 2.122 
536 792 -2.095503 3.483323 3.811 
552 792 -2.084953 3.932119 2.771 
568 792 -1.840074 3.690396 1.847 
584 792 -1.478994 2.989244 4.078 
600 792 -1.429007 3.032282 1.146 
616 792 -1.501009 2.693145 1.471 
632 792 -2.399992 2.259350 1.955 
648 792 -3.390777 2.168373 1.705 
664 792 -3.454346 2.284008 1.188 
680 792 -3.517914 2.399642 2.986 
696 792 -3.250557 2.221824 2.474 
712 792 -2.984926 2.608344 1.045 
728 792 -2.809454 3.330628 1.235 
744 792 -2.682675 4.132548 1.017 
760 792 -2.805679 4.442254 2.286 
776 792 -2.784041 4.827783 4.063 
792 792 -2.876562 4.901266 2.023 
808 792 -2.409373 4.264435 1.734 
824 792 -2.363163 3.935594 2.617 
840 792 -3.030542 3.672733 2.344 
856 792 -3.805301 3.057021 5.410 
872 792 -4.330272 1.925204 1.389 
888 792 -3.923097 1.861132 1.885 
904 792 -3.651412 2.430335 3.254 
920 792 -3.437509 2.580016 2.908 
936 792 -3.038361 2.336291 1.755 
952 792 -2.634726 1.578455 2.524 
968 792 -2.903650 0.545000 2.393 
984 792 -3.091285 0.299932 2.505 
1000 792 -2.584411 0.447809 1.980 
1016 792 -2.396555 0.805299 2.343 
1032 792 -2.208699 1.162789 3.729 
1048 792 -2.707520 1.131822 3.175 
1064 792 -2.956214 0.429511 6.903 
1080 792 -3.613474 0.085393 6.487 
1096 792 -4.905581 0.890778 2.563 
1112 792 -6.645210 1.962784 1.677 
1128 792 -5.878294 2.912551 2.205 
1144 792 -5.111379 3.862318 1.215 
1160 792 -4.344463 4.812086 1.028 
1176 792 -3.139141 5.326312 1.003 
1192 792 -1.992835 7.043064 1.584 
1208 792 -0.843920 10.851197 1.111 
1224 792 -0.819651 12.875723 1.261 
1240 792 -0.795383 14.900249 1.232 
1256 792 0.000000 -0.000000 1.209 
1272 792 0.000000 -0.000000 1.096 
8 776 0.000000 -0.000000 1.358 
24 776 0.213084 0.660792 1.400 
40 776 1.202108 -0.338515 1.228 
56 776 1.000719 -0.311407 1.443 
72 776 0.799330 -0.284299 1.296 
88 776 0.183236 0.818453 1.108 
104 776 -1.490381 1.690814 1.042 
120 776 -0.145352 3.769315 1.119 
136 776 -2.584099 5.262753 1.038 
152 776 -4.625284 2.574205 1.183 
168 776 -4.161252 3.374395 1.160 
184 776 -4.107507 3.553319 1.361 
200 776 -3.780940 3.234259 1.331 
216 776 -3.318400 2.905380 2.639 
232 776 -3.264230 2.902547 1.941 
248 776 -3.725692 3.492136 1.938 
264 776 -4.241533 4.018656 1.283 
280 776 -4.419506 2.785298 1.048 
296 776 -4.297547 1.881823 3.154 
312 776 -4.374259 2.104902 1.459 
328 776 -4.046323 2.547573 1.526 
344 776 -4.054722 1.738664 1.942 
360 776 -3.728651 0.829309 2.042 
376 776 -3.714626 1.325446 2.859 
392 776 -3.368776 2.270104 1.337 
408 776 -3.859944 1.980041 1.912 
424 776 -3.933828 1.514135 2.833 
440 776 -3.770405 1.529066 2.172 
456 776 -3.167132 2.258164 2.364 
472 776 -2.601973 3.075915 1.116 
488 776 -2.025364 3.394476 1.219 
504 776 -1.627909 3.443088 2.473 
520 776 -1.637645 3.241687 1.927 
536 776 -1.934234 3.660902 4.113 
552 776 -1.968619 4.137384 2.808 
568 776 -1.754514 3.859854 1.861 
584 776 -1.588615 3.253781 4.016 
600 776 -1.378929 3.062424 1.149 
616 776 -1.474345 2.772782 1.468 
632 776 -2.268215 2.305488 1.981 
648 776 -3.241233 2.106830 1.687 
664 776 -3.704337 2.175263 1.153 
680 776 -3.424980 2.218553 3.084 
696 776 -3.078450 1.889617 2.521 
712 776 -3.124676 2.231429 1.040 
728 776 -2.774240 2.966998 1.245 
744 776 -2.545310 3.857009 1.084 
760 776 -2.652053 4.238860 2.368 
776 776 -2.660136 4.629605 3.836 
792 776 -2.816444 4.608897 2.112 
808 776 -2.430496 4.080788 1.790 
824 776 -2.429408 3.840645 2.669 
840 776 -3.002285 3.874161 2.432 
856 776 -3.816472 2.939118 5.005 
872 776 -4.278391 1.866961 1.471 
888 776 -3.925130 1.726698 1.895 
904 776 -3.767850 2.272841 3.254 
920 776 -3.676148 2.428467 2.935 
936 776 -3.429369 2.171419 1.783 
952 776 -3.088094 1.414042 2.627 
968 776 -3.588365 0.691984 2.496 
984 776 -3.430749 0.330219 2.630 
1000 776 -2.898609 0.541740 1.926 
1016 776 -2.419424 0.815190 2.260 
1032 776 -2.580760 1.150706 3.577 
1048 776 -2.980481 1.072310 3.148 
1064 776 -3.213924 0.435040 7.717 
1080 776 -3.829664 0.180679 6.610 
1096 776 -5.070790 0.883277 2.641 
1112 776 -6.494568 2.132989 1.675 
1128 776 -7.278434 1.843114 2.249 
1144 776 -5.831516 2.624721 1.253 
1160 776 -4.452366 3.828233 1.238 
1176 776 -3.254795 5.083283 1.013 
1192 776 -1.161329 6.184422 1.575 
1208 776 0.927323 11.800464 1.098 
1224 776 0.106429 12.758187 1.269 
1240 776 -0.714466 13.715910 1.342 
1256 776 -0.164126 8.923869 1.150 
1272 776 0.000000 -0.000000 1.065 
8 760 0.000000 -0.000000 1.016 
24 760 0.162836 0.150984 1.018 
40 760 0.909602 -0.502977 1.132 
56 760 1.090799 -0.726004 1.009 
72 760 0.103240 -0.456396 1.670 
88 760 -0.403317 0.239510 1.049 
104 760 -0.947774 0.017853 1.568 
120 760 -1.882235 0.192431 1.293 
136 760 -3.547100 0.885755 1.262 
152 760 -3.825616 1.998965 1.228 
168 760 -4.205020 3.167875 1.185 
184 760 -3.826140 3.345061 1.212 
200 760 -3.636824 2.986789 2.242 
216 760 -3.144061 2.774731 3.257 
232 760 -2.753445 2.427599 1.275 
248 760 -4.014031 2.920149 1.186 
264 760 -4.479872 3.452579 1.851 
280 760 -4.309416 3.634138 1.668 
296 760 -4.034822 3.118873 1.251 
312 760 -4.204233 2.924058 1.337 
328 760 -4.435663 2.514109 1.483 
344 760 -4.779415 1.843994 1.860 
360 760 -4.608061 1.181382 1.752 
376 760 -3.977220 1.766332 1.757 
392 760 -3.691192 2.114927 2.626 
408 760 -4.026986 1.772899 1.747 
424 760 -3.921978 1.438601 5.728 
440 760 -3.490401 1.712402 4.341 
456 760 -2.899469 2.497227 2.856 
472 760 -2.351371 3.123368 1.758 
488 760 -1.883882 3.159074 2.751 
504 760 -1.506260 2.856207 2.586 
520 760 -1.575949 2.758733 2.205 
536 760 -1.711078 3.791178 9.562 
552 760 -1.780788 4.202129 4.559 
568 760 -1.641680 3.972844 2.401 
584 760 -1.604028 3.366023 1.255 
600 760 -1.348694 2.999695 1.277 
616 760 -1.328505 2.840678 1.601 
632 760 -1.911412 2.443408 2.635 
648 760 -3.061364 1.891454 1.192 
664 760 -3.318893 2.104582 1.014 
680 760 -2.993357 1.953818 2.874 
696 760 -2.760425 1.443144 1.958 
712 760 -2.532649 1.651062 1.590 
728 760 -2.257011 2.537798 2.871 
744 760 -2.074389 3.268131 2.297 
760 760 -2.355588 4.243913 2.215 
776 760 -2.513459 4.422051 1.816 
792 760 -2.891896 3.810720 2.834 
808 760 -2.711760 3.723631 2.846 
824 760 -2.678204 3.868475 1.815 
840 760 -3.203105 3.725416 2.956 
856 760 -4.023437 2.583397 2.621 
872 760 -4.042642 1.875856 1.222 
888 760 -3.657618 1.802803 2.564 
904 760 -3.823757 2.044001 2.351 
920 760 -4.013152 2.031185 2.045 
936 760 -4.125652 1.780418 2.577 
952 760 -4.577305 1.177858 2.819 
968 760 -4.340880 0.766061 3.369 
984 760 -4.004753 0.531755 5.741 
1000 760 -3.397567 0.668772 2.105 
1016 760 -2.916380 1.016274 2.356 
1032 760 -3.246430 1.171642 2.534 
1048 760 -3.383329 0.998693 1.920 
1064 760 -3.410904 0.451844 3.784 
1080 760 -3.998551 0.193141 3.755 
1096 760 -5.182536 0.958416 5.031 
1112 760 -6.473524 1.655258 2.171 
1128 760 -6.751706 1.244218 1.656 
1144 760 -5.587001 1.063209 1.197 
1160 760 -3.752920 0.336041 1.107 
1176 760 -2.588821 3.670824 1.199 
1192 760 -0.510701 5.678912 1.026 
1208 760 0.848639 11.700215 1.050 
1224 760 0.347521 12.345798 1.143 
1240 760 -0.153597 12.991381 1.084 
1256 760 -0.227041 4.334465 1.230 
1272 760 0.000000 -0.000000 1.187 
8 744 -5.504830 -0.849543 1.024 
24 744 -2.444355 -0.629898 1.010 
40 744 0.362972 -0.016220 1.319 
56 744 0.700115 0.106446 1.274 
72 744 0.239862 0.211869 1.164 
88 744 0.585930 -0.241577 1.137 
104 744 0.289777 -0.367107 1.328 
120 744 -0.006375 -0.492636 1.281 
136 744 3.559566 0.593683 1.029 
152 744 -0.171655 1.529604 1.216 
168 744 -2.600881 2.710063 1.193 
184 744 -3.443246 2.809037 2.171 
200 744 -3.502237 2.669480 1.043 
216 744 -2.940963 2.261522 1.640 
232 744 -2.934256 1.945019 1.945 
248 744 -4.220892 2.098808 1.210 
264 744 -4.634176 2.767999 1.436 
280 744 -4.188429 3.542964 1.452 
296 744 -4.026859 3.463478 1.435 
312 744 -4.095137 3.118192 2.012 
328 744 -4.787304 2.449639 1.683 
344 744 -5.368292 1.970256 2.265 
360 744 -5.487470 1.533454 1.821 
376 744 -3.846905 2.300875 1.753 
392 744 -3.579985 2.502670 1.902 
408 744 -3.734525 1.925255 1.560 
424 744 -3.318636 1.337411 5.258 
440 744 -2.977140 1.706051 3.902 
456 744 -2.430428 2.525275 3.543 
472 744 -2.002454 3.155757 4.952 
488 744 -1.652838 3.134986 5.802 
504 744 -1.103399 2.313077 3.053 
520 744 -1.391198 1.990378 2.411 
536 744 -1.438989 3.318672 6.355 
552 744 -1.489735 3.786901 13.564 
568 744 -1.373819 3.646568 7.908 
584 744 -1.187374 2.985905 1.662 
600 744 -1.065983 2.692791 1.359 
616 744 -1.256996 3.038702 2.874 
632 744 -1.405327 2.543213 1.517 
648 744 -2.204172 1.841760 2.351 
664 744 -2.676755 1.974526 1.376 
680 744 -2.405246 1.685201 2.192 
696 744 -2.227146 0.860451 2.506 
712 744 -1.973433 1.169704 2.106 
728 744 -2.020433 2.488030 2.694 
744 744 -2.080687 3.163493 1.859 
760 744 -2.244724 3.952542 1.466 
776 744 -2.352566 4.114516 1.506 
792 744 -2.797436 3.454137 2.287 
808 744 -2.991808 3.452092 3.652 
824 744 -3.061112 3.829301 1.565 
840 744 -3.342472 3.520140 1.713 
856 744 -3.387489 2.885428 2.843 
872 744 -3.235794 2.091912 3.229 
888 744 -3.300469 1.517315 3.276 
904 744 -3.744718 1.472924 2.513 
920 744 -4.186392 1.468798 1.597 
936 744 -4.621272 1.083877 4.167 
952 744 -4.529085 0.629037 5.076 
968 744 -4.804066 0.469444 3.117 
984 744 -4.239704 0.447519 2.492 
1000 744 -3.897815 0.892530 5.109 
1016 744 -3.666096 1.392293 3.070 
1032 744 -3.785272 1.257727 2.958 
1048 744 -3.605460 0.704712 1.159 
1064 744 -3.573053 0.385581 2.160 
1080 744 -3.930947 0.074162 3.000 
1096 744 -4.993143 0.661513 5.038 
1112 744 -5.651067 1.399904 2.194 
1128 744 -6.223516 1.084094 1.460 
1144 744 -5.145613 0.907801 1.191 
1160 744 -3.604719 0.673022 1.094 
1176 744 -1.922846 2.258365 1.605 
1192 744 -0.121844 5.487456 1.065 
1208 744 0.713734 11.437860 1.037 
1224 744 0.616665 11.416813 1.390 
1240 744 0.519596 11.395766 1.077 
1256 744 -0.289955 -0.254939 1.120 
1272 744 0.000000 -0.000000 1.014 
8 728 -8.197167 -1.366912 1.047 
24 728 -4.720749 -0.822793 1.103 
40 728 0.626186 1.495005 1.114 
56 728 2.674045 2.322947 1.184 
72 728 1.213590 0.621638 1.154 
88 728 0.508710 0.041337 1.374 
104 728 0.608958 -0.186357 1.130 
120 728 0.709206 -0.414052 1.133 
136 728 2.095756 0.323095 1.029 
152 728 3.482306 1.060242 1.086 
168 728 -2.754848 1.771043 1.054 
184 728 -3.046481 2.433894 2.519 
200 728 -2.883860 2.442770 1.295 
216 728 -2.738895 1.830174 1.628 
232 728 -2.984290 1.308167 2.439 
248 728 -3.649327 1.184512 1.349 
264 728 -3.883426 2.071261 1.586 
280 728 -3.117377 3.290854 2.705 
296 728 -3.120720 3.551687 3.197 
312 728 -3.478701 2.977694 2.119 
328 728 -4.328686 2.411423 2.046 
344 728 -5.309845 1.970586 1.575 
360 728 -4.763977 2.199633 1.998 
376 728 -2.997571 2.935877 1.761 
392 728 -2.426785 3.070160 1.006 
408 728 -2.792778 1.761245 1.311 
424 728 -2.536147 1.489198 1.909 
440 728 -2.279517 1.217152 3.682 
456 728 -1.991324 2.404015 3.417 
472 728 -1.602781 3.172966 5.860 
488 728 -1.253785 3.228765 3.593 
504 728 -0.753001 2.092623 1.967 
520 728 -0.593571 2.045897 3.902 
536 728 -1.106230 2.506353 3.101 
552 728 -0.986108 3.239529 3.005 
568 728 -0.905758 3.156770 3.280 
584 728 -0.714566 2.692968 2.426 
600 728 -0.740019 2.561440 1.952 
616 728 -0.958215 2.895423 2.090 
632 728 -0.945516 2.167465 2.013 
648 728 -1.205513 1.355170 1.640 
664 728 -1.743361 1.525285 1.520 
680 728 -1.434780 1.682361 1.758 
696 728 -1.961440 0.842814 2.600 
712 728 -1.747669 1.179885 2.319 
728 728 -1.967798 2.530672 2.337 
744 728 -2.178263 3.345063 1.991 
760 728 -2.320910 3.786806 2.666 
776 728 -2.550095 3.934091 2.593 
792 728 -2.761898 3.269417 2.449 
808 728 -3.035208 3.375405 2.733 
824 728 -3.129126 3.677086 1.985 
840 728 -3.001262 3.599875 1.341 
856 728 -3.040664 3.093666 3.539 
872 728 -3.272969 2.284509 1.589 
888 728 -3.486187 1.653435 4.108 
904 728 -3.860831 1.323268 3.201 
920 728 -4.169687 1.013346 2.362 
936 728 -4.430229 0.475813 1.592 
952 728 -4.480865 0.080215 2.330 
968 728 -4.332945 0.071999 2.385 
984 728 -4.155776 0.354002 2.094 
1000 728 -3.929598 1.055524 3.494 
1016 728 -3.769978 1.546111 2.312 
1032 728 -3.810222 1.419223 1.806 
1048 728 -3.871377 0.830318 1.843 
1064 728 -3.600738 0.208873 1.964 
1080 728 -4.175914 -0.316184 2.260 
1096 728 -4.869884 0.091330 3.949 
1112 728 -4.828610 1.144551 1.651 
1128 728 -5.153543 1.370086 1.134 
1144 728 -5.374729 1.386225 1.072 
1160 728 -4.072055 2.558771 2.043 
1176 728 -2.617068 3.518340 1.831 
1192 728 -0.264291 5.062155 1.785 
1208 728 0.649149 6.827646 2.435 
1224 728 0.944869 10.559965 1.326 
1240 728 -0.651841 10.336658 1.159 
1256 728 -1.199470 4.267190 1.281 
1272 728 1.944901 -0.517794 1.287 
8 712 -11.198020 -3.123949 1.208 
24 712 -11.260027 -2.177730 1.100 
40 712 6.167245 -0.086260 1.041 
56 712 4.647974 4.539448 1.014 
72 712 3.014042 1.498994 1.002 
88 712 0.598403 1.397863 1.151 
104 712 0.298932 1.091646 1.464 
120 712 -0.444544 2.119993 1.237 
136 712 0.605679 2.132028 1.352 
152 712 1.111164 1.502900 1.669 
168 712 -1.756845 1.859407 1.611 
184 712 -2.040351 2.786370 1.338 
200 712 -2.332228 2.316792 1.858 
216 712 -2.573269 1.630414 1.916 
232 712 -2.626073 0.660213 1.441 
248 712 -2.736058 0.716960 1.207 
264 712 -2.662568 1.308874 1.701 
280 712 -1.804269 2.829391 4.164 
296 712 -1.856274 3.256438 2.357 
312 712 -2.329074 2.893824 1.794 
328 712 -3.524962 2.333419 1.540 
344 712 -4.467740 2.015549 1.114 
360 712 -3.744658 2.653265 1.543 
376 712 -2.205145 3.509307 1.360 
392 712 -1.261628 3.631802 1.524 
408 712 -1.937988 1.722810 1.713 
424 712 -1.971294 1.475523 1.442 
440 712 -2.004600 1.228235 1.326 
456 712 -1.226746 2.336618 1.518 
472 712 -0.954970 3.242985 3.452 
488 712 -0.752048 3.339747 3.516 
504 712 -0.295314 2.668825 2.223 
520 712 -0.456540 2.413661 5.264 
536 712 -1.082058 2.312226 2.897 
552 712 -0.997942 2.671725 3.261 
568 712 -0.719255 2.715283 4.257 
584 712 -0.385712 2.421358 4.307 
600 712 -0.247706 2.859173 3.460 
616 712 -0.251981 3.017835 2.498 
632 712 -0.428139 2.278376 3.582 
648 712 -0.665655 1.363167 2.681 
664 712 -0.881894 1.322248 3.121 
680 712 -1.532969 1.475068 2.453 
696 712 -1.615500 1.147676 1.796 
712 712 -1.118270 1.490222 1.487 
728 712 -1.222923 2.706783 2.346 
744 712 -2.210292 3.920583 2.078 
760 712 -2.465611 4.128345 2.615 
776 712 -3.070796 4.219050 1.681 
792 712 -3.329681 3.764832 1.575 
808 712 -3.056886 3.395410 1.536 
824 712 -3.060160 3.313514 1.867 
840 712 -3.118836 3.444389 2.901 
856 712 -3.491539 2.955005 2.501 
872 712 -3.721870 2.338187 2.281 
888 712 -3.841263 1.694152 3.719 
904 712 -3.959502 1.126172 1.808 
920 712 -4.014717 0.916234 1.622 
936 712 -4.018051 0.569260 1.487 
952 712 -3.910649 0.076448 1.026 
968 712 -3.429292 0.419090 1.019 
984 712 -3.608534 1.048733 1.265 
1000 712 -3.629609 1.386494 1.050 
1016 712 -3.572281 1.667860 1.070 
1032 712 -3.635319 1.020255 1.771 
1048 712 -3.674470 0.426691 2.016 
1064 712 -3.738281 -0.078740 2.214 
1080 712 -4.063456 -0.446675 2.196 
1096 712 -4.207297 -0.076295 3.296 
1112 712 -4.606690 0.664343 3.112 
1128 712 -4.966001 1.306381 1.828 
1144 712 -5.582761 1.259713 1.834 
1160 712 -4.771217 2.018338 8.631 
1176 712 -2.928302 2.609233 1.480 
1192 712 -1.199951 4.039390 1.238 
1208 712 -0.038122 5.734429 1.001 
1224 712 -1.248045 14.962545 1.005 
1240 712 1.250281 9.914737 1.253 
1256 712 4.249715 5.629311 1.056 
1272 712 1.773773 2.309119 1.113 
8 696 -14.198873 -4.880987 1.525 
24 696 -5.177853 -1.207766 1.478 
40 696 12.823532 -2.267705 1.275 
56 696 8.710671 5.406058 1.112 
72 696 6.599233 5.453475 1.029 
88 696 3.071350 5.326022 1.003 
104 696 -0.631426 6.035863 1.475 
120 696 -1.723736 5.150116 1.489 
136 696 -1.220724 3.215848 1.647 
152 696 -1.259979 1.945557 2.307 
168 696 -1.445828 1.748544 1.651 
184 696 -1.368330 2.023116 2.160 
200 696 -1.734092 2.325269 2.833 
216 696 -2.120763 1.503692 1.906 
232 696 -1.954288 0.543719 1.683 
248 696 -2.019580 0.635988 1.245 
264 696 -1.578670 0.851414 2.529 
280 696 -1.059514 2.215052 7.311 
296 696 -1.115932 2.648185 3.245 
312 696 -1.618658 2.251883 2.819 
328 696 -2.243157 1.506612 1.481 
344 696 -2.694765 2.026241 1.133 
360 696 -2.355486 3.067497 1.178 
376 696 -1.562070 3.721216 1.252 
392 696 -1.303720 3.646050 1.924 
408 696 -2.010636 2.428078 1.628 
424 696 -1.864593 2.017515 3.683 
440 696 -1.376206 1.992268 1.696 
456 696 -0.674811 2.542897 1.822 
472 696 -0.855530 2.990747 1.930 
488 696 -0.320796 3.613643 1.481 
504 696 0.162373 3.245028 4.179 
520 696 0.002643 3.267799 2.567 
536 696 -0.509665 2.857463 2.447 
552 696 -0.833960 2.792407 1.384 
568 696 -0.631346 2.671236 1.420 
584 696 -0.214214 2.585149 2.921 
600 696 0.005080 2.843471 3.233 
616 696 -0.079800 2.885531 4.492 
632 696 -0.277268 2.174187 3.374 
648 696 -0.270147 1.672972 2.136 
664 696 -0.650012 1.774192 2.615 
680 696 -0.906094 1.963755 2.283 
696 696 -0.740862 2.037014 2.798 
712 696 -0.339466 2.386994 4.129 
728 696 -0.448066 2.791202 4.788 
744 696 -1.741071 3.403984 3.210 
760 696 -2.602863 3.785776 3.167 
776 696 -3.375422 3.196537 1.431 
792 696 -3.236650 2.626394 1.289 
808 696 -3.087080 2.312493 1.663 
824 696 -3.358984 2.808771 1.805 
840 696 -3.540099 2.892134 4.451 
856 696 -3.646331 2.616788 4.502 
872 696 -3.742388 2.050064 2.184 
888 696 -3.880008 1.564094 2.244 
904 696 -3.591082 0.990895 2.329 
920 696 -3.620370 1.095181 1.860 
936 696 -3.500801 1.164635 1.489 
952 696 -2.852539 1.298604 1.402 
968 696 -2.510748 0.944112 2.043 
984 696 -2.970515 1.133377 1.432 
1000 696 -3.421259 1.571019 1.010 
1016 696 -3.759108 1.427474 1.315 
1032 696 -3.563176 0.466186 1.226 
1048 696 -4.069940 0.079132 1.707 
1064 696 -4.130396 -0.170310 2.066 
1080 696 -4.013475 -0.353238 3.377 
1096 696 -3.824440 0.151046 2.151 
1112 696 -4.407633 0.499637 2.812 
1128 696 -5.077223 0.651030 2.941 
1144 696 -5.249093 0.860278 2.351 
1160 696 -5.055771 0.841428 3.032 
1176 696 -3.727156 1.959171 20.000 
1192 696 -2.549384 3.162579 1.125 
1208 696 -1.317188 5.357165 1.010 
1224 696 -2.950857 13.510083 1.158 
1240 696 -1.715493 12.809832 1.002 
1256 696 3.544885 9.955936 1.032 
1272 696 1.602645 5.136031 1.027 
8 680 -3.797173 -0.549046 1.167 
24 680 0.904320 -0.237802 1.206 
40 680 11.104167 -1.625268 1.020 
56 680 11.602416 0.762900 1.214 
72 680 12.100665 3.151069 1.078 
88 680 5.501913 6.400613 1.409 
104 680 -1.994090 5.669270 1.017 
120 680 -2.217174 4.933831 1.025 
136 680 -2.434410 3.472501 1.766 
152 680 -2.795620 2.241642 3.064 
168 680 -2.257561 1.951948 1.922 
184 680 -1.625010 2.170931 2.379 
200 680 -1.617338 1.998209 3.643 
216 680 -1.977746 1.548827 2.554 
232 680 -1.953749 1.352068 1.710 
248 680 -1.781263 1.033066 1.128 
264 680 -1.803264 1.509607 1.632 
280 680 -1.236261 1.979611 4.357 
296 680 -0.912990 1.997521 2.013 
312 680 -1.036538 0.710599 1.116 
328 680 -1.083076 0.177969 1.444 
344 680 -1.191336 1.127866 1.286 
360 680 -0.877744 2.690823 1.404 
376 680 -0.508942 3.767099 1.756 
392 680 -1.111266 3.586008 1.719 
408 680 -1.629749 2.840884 1.637 
424 680 -1.264909 2.544162 2.545 
440 680 -1.117413 2.324739 2.656 
456 680 -0.782366 2.495407 2.052 
472 680 -0.756089 2.738510 2.577 
488 680 -1.155133 2.989747 2.031 
504 680 -0.463138 3.507996 3.252 
520 680 0.153315 3.324950 1.451 
536 680 0.164005 3.058224 2.081 
552 680 -0.286702 3.055853 1.745 
568 680 -0.204875 2.645286 1.579 
584 680 -0.042715 2.748940 2.378 
600 680 -0.087518 2.689633 1.379 
616 680 -0.688155 2.153619 2.024 
632 680 -0.866152 1.554637 2.064 
648 680 -0.465723 1.565785 1.031 
664 680 -0.655694 1.934425 2.412 
680 680 -0.703991 2.339600 3.097 
696 680 -0.531608 2.514854 6.636 
712 680 -0.265648 2.552875 3.134 
728 680 -0.330596 2.771448 2.448 
744 680 -1.271850 2.887386 2.811 
760 680 -2.845617 2.719104 2.547 
776 680 -3.129793 2.196489 1.535 
792 680 -2.988753 1.963854 1.221 
808 680 -3.096919 1.986901 1.053 
824 680 -3.657807 2.304029 1.600 
840 680 -3.539827 2.333514 1.930 
856 680 -3.474753 2.193389 1.226 
872 680 -3.237260 1.718353 2.412 
888 680 -3.237107 1.153372 3.192 
904 680 -3.061726 0.980196 2.240 
920 680 -2.979005 1.188697 2.062 
936 680 -3.103739 1.396497 2.682 
952 680 -2.584213 1.262365 1.494 
968 680 -2.472916 1.263512 3.173 
984 680 -2.929917 1.187941 2.145 
1000 680 -3.491629 1.267179 2.589 
1016 680 -3.945572 0.892013 2.846 
1032 680 -4.450349 -0.075608 2.079 
1048 680 -4.505097 -0.025407 2.435 
1064 680 -4.273322 -0.050239 2.118 
1080 680 -3.998982 -0.214019 3.894 
1096 680 -3.954104 -0.143139 1.584 
1112 680 -4.286192 0.096188 2.768 
1128 680 -4.829644 0.721030 2.282 
1144 680 -4.915424 0.460842 1.525 
1160 680 -4.429207 0.585685 2.606 
1176 680 -4.162937 0.731481 2.091 
1192 680 -3.161223 1.711250 5.923 
1208 680 -1.643778 3.393441 1.129 
1224 680 -2.816461 8.786689 1.110 
1240 680 -3.309273 10.220678 1.130 
1256 680 -1.790516 10.682534 1.353 
1272 680 1.431517 7.962944 1.284 
8 664 2.027457 -0.423761 1.291 
24 664 5.571309 -0.825230 1.149 
40 664 7.809033 -1.253406 1.204 
56 664 7.746518 -1.268190 1.344 
72 664 7.684002 -1.282973 1.109 
88 664 0.186023 -1.115300 1.132 
104 664 -2.201436 2.899204 1.012 
120 664 -3.087646 2.602322 1.034 
136 664 -3.514063 2.139513 1.226 
152 664 -3.580600 1.909990 1.350 
168 664 -2.711029 2.094330 1.773 
184 664 -1.195512 1.975214 1.606 
200 664 -1.601579 1.590454 2.270 
216 664 -1.474615 1.521386 1.787 
232 664 -1.662421 1.418795 2.805 
248 664 -1.520180 1.437020 1.579 
264 664 -1.824233 2.027463 1.512 
280 664 -1.961770 2.598857 2.693 
296 664 -2.289318 2.338806 2.133 
312 664 -1.593328 1.002172 2.344 
328 664 -1.182668 0.953585 2.009 
344 664 -0.807325 1.281943 4.596 
360 664 -0.274548 2.077763 3.247 
376 664 -0.522883 2.859262 2.336 
392 664 -0.854546 3.132792 1.105 
408 664 -1.053373 2.901341 2.963 
424 664 -0.937808 2.408152 3.142 
440 664 -0.952131 2.070085 1.823 
456 664 -1.010188 1.953024 2.000 
472 664 -1.275022 2.182231 2.158 
488 664 -1.075182 2.694858 2.038 
504 664 -0.866564 3.097657 1.027 
520 664 -0.107318 3.244584 1.093 
536 664 0.179174 3.127797 1.060 
552 664 0.118992 2.747036 1.711 
568 664 0.043152 2.571489 2.423 
584 664 -0.012057 2.226414 2.334 
600 664 -0.465986 1.920120 3.098 
616 664 -0.983658 1.682039 2.640 
632 664 -1.059665 1.482834 2.692 
648 664 -0.997174 1.440691 2.123 
664 664 -0.877793 1.924624 4.050 
680 664 -0.834754 2.373880 1.447 
696 664 -0.781274 2.553562 2.827 
712 664 -0.631201 2.546012 2.331 
728 664 -0.883442 2.600034 1.312 
744 664 -1.714389 2.450026 1.616 
760 664 -2.632781 2.379580 1.166 
776 664 -2.681048 2.060475 1.834 
792 664 -2.949456 1.962863 1.272 
808 664 -3.092427 1.894457 1.638 
824 664 -3.726503 2.071045 1.155 
840 664 -3.615794 1.954497 2.471 
856 664 -3.496012 1.551698 2.371 
872 664 -3.324526 1.234652 1.648 
888 664 -3.357888 0.932887 1.929 
904 664 -3.270050 1.348140 1.295 
920 664 -2.855833 1.691295 2.199 
936 664 -2.553910 1.035637 2.697 
952 664 -2.698357 1.164463 1.577 
968 664 -2.806177 1.499088 1.241 
984 664 -3.268701 1.072657 1.813 
1000 664 -4.251114 1.148786 1.375 
1016 664 -4.626476 0.427162 1.214 
1032 664 -4.701101 -0.016479 2.504 
1048 664 -4.143877 0.598278 1.924 
1064 664 -3.843041 0.613370 5.800 
1080 664 -3.657712 0.280313 5.780 
1096 664 -3.569561 0.082889 1.781 
1112 664 -3.757981 0.297231 2.631 
1128 664 -3.933052 0.911045 3.012 
1144 664 -3.770557 0.829072 2.777 
1160 664 -3.802642 0.329942 3.189 
1176 664 -3.477648 -0.073942 2.500 
1192 664 -2.774976 0.118036 1.945 
1208 664 -1.970368 1.429718 2.201 
1224 664 -2.682065 4.063294 1.138 
1240 664 -4.903054 7.631523 1.020 
1256 664 -3.167417 8.071355 1.634 
1272 664 -0.688583 6.931477 1.447 
8 648 7.063797 -0.045335 1.364 
24 648 9.052721 -0.877502 1.379 
40 648 9.014629 -1.310994 1.083 
56 648 9.335310 -0.889160 1.157 
72 648 4.040107 -1.230777 1.109 
88 648 -0.717107 0.136432 1.221 
104 648 -2.494416 1.116750 1.365 
120 648 -2.888270 1.310378 1.462 
136 648 -2.848640 1.820223 1.089 
152 648 -3.411309 1.762926 1.023 
168 648 -1.769346 1.692596 1.332 
184 648 -1.134391 1.707383 2.017 
200 648 -1.585821 1.182698 1.734 
216 648 -1.164122 1.045342 1.168 
232 648 -0.357701 0.986321 1.428 
248 648 0.202576 1.108171 1.100 
264 648 -1.957800 1.884711 1.893 
280 648 -2.301743 2.497028 2.520 
296 648 -2.300403 2.449064 2.291 
312 648 -2.405874 2.179953 1.903 
328 648 -1.282260 1.729202 1.858 
344 648 -0.423314 1.436021 3.400 
360 648 -0.250421 1.981961 3.582 
376 648 -0.594666 2.451944 2.310 
392 648 -0.820896 2.573562 1.375 
408 648 -0.724950 2.429076 2.282 
424 648 -0.465354 2.195224 3.621 
440 648 -0.617141 1.932134 3.366 
456 648 -0.861744 1.881890 2.763 
472 648 -0.812832 2.228423 1.234 
488 648 -0.995231 2.399969 1.214 
504 648 -0.654489 2.680828 1.992 
520 648 -0.225308 2.855817 4.854 
536 648 0.097107 2.804070 2.406 
552 648 0.073831 2.443483 2.809 
568 648 -0.088904 2.222185 2.327 
584 648 -0.314876 2.019804 1.846 
600 648 -0.916530 1.903789 1.522 
616 648 -1.224219 1.752102 2.380 
632 648 -1.057159 1.612648 1.240 
648 648 -1.152392 1.543249 1.356 
664 648 -1.290537 1.886473 3.258 
680 648 -1.071779 2.379053 3.936 
696 648 -1.060477 2.463234 2.543 
712 648 -1.146968 2.332366 2.421 
728 648 -0.960690 1.980121 2.696 
744 648 -1.438352 1.825264 4.490 
760 648 -2.109495 1.802597 2.332 
776 648 -2.762123 2.093217 2.033 
792 648 -2.910160 1.961872 3.987 
808 648 -3.565426 1.957372 2.508 
824 648 -3.831302 1.974097 1.305 
840 648 -3.724600 1.787117 2.493 
856 648 -3.732301 1.150486 2.675 
872 648 -3.715115 0.874310 2.868 
888 648 -3.419570 1.048978 1.746 
904 648 -3.273429 1.457369 1.573 
920 648 -3.025170 1.508514 2.668 
936 648 -2.864801 0.962281 2.077 
952 648 -3.206147 1.047860 1.945 
968 648 -3.513895 1.471741 1.479 
984 648 -4.046050 1.336452 1.765 
1000 648 -4.502751 0.984692 1.084 
1016 648 -4.577600 0.005322 1.172 
1032 648 -4.287399 0.234835 2.555 
1048 648 -3.675356 1.163173 2.746 
1064 648 -3.328287 1.468906 1.724 
1080 648 -3.075101 1.196147 1.738 
1096 648 -3.148331 0.758997 2.440 
1112 648 -3.264435 0.733637 3.009 
1128 648 -2.619566 0.867831 2.583 
1144 648 -2.612184 0.890600 2.653 
1160 648 -2.869667 0.983212 2.067 
1176 648 -3.030850 0.311153 2.627 
1192 648 -2.768515 0.078415 1.902 
1208 648 -2.466401 0.716928 1.541 
1224 648 -2.683085 1.785254 1.144 
1240 648 -3.790468 3.882744 1.145 
1256 648 -3.096803 6.412670 1.158 
1272 648 -2.808682 5.900010 1.162 
8 632 9.743236 0.200883 1.140 
24 632 10.006972 -0.278221 1.078 
40 632 8.297854 -0.815675 1.244 
56 632 5.929701 -0.161052 1.276 
72 632 0.562064 1.112858 1.238 
88 632 -1.620236 1.388165 1.115 
104 632 -1.988023 1.376957 1.383 
120 632 -1.662194 1.595517 1.387 
136 632 -2.034540 1.929192 1.336 
152 632 -2.957806 1.615763 1.022 
168 632 -3.017944 1.304944 1.084 
184 632 -2.404775 1.080908 1.776 
200 632 -3.273919 1.081246 1.554 
216 632 -2.536389 0.870007 1.403 
232 632 1.410078 0.269895 1.040 
248 632 0.562303 0.513353 1.184 
264 632 -0.285473 0.756812 1.340 
280 632 -1.750201 1.828687 1.829 
296 632 -2.311487 2.559322 1.713 
312 632 -1.805499 2.279321 1.243 
328 632 -1.591801 2.476759 1.416 
344 632 -1.243345 2.064728 1.864 
360 632 -0.987917 2.281147 2.526 
376 632 -1.265760 2.350280 1.983 
392 632 -1.268068 2.269039 1.771 
408 632 -0.589185 2.418447 1.369 
424 632 -0.218463 2.223888 3.170 
440 632 -0.161439 2.084610 5.520 
456 632 -0.276727 2.116917 3.049 
472 632 -0.247167 2.336969 2.181 
488 632 -0.144292 2.282153 1.538 
504 632 -0.419525 2.050802 2.075 
520 632 -0.173778 2.093042 1.604 
536 632 0.067904 2.259672 2.895 
552 632 0.068261 2.369213 1.873 
568 632 -0.112646 2.252446 2.446 
584 632 -0.712636 1.976465 2.512 
600 632 -1.333996 1.813571 2.200 
616 632 -1.482567 1.722452 4.728 
632 632 -1.290044 1.574309 1.774 
648 632 -1.306483 1.669368 1.441 
664 632 -1.353914 1.966977 3.033 
680 632 -1.592180 2.355070 3.078 
696 632 -1.334771 2.215775 2.901 
712 632 -1.572509 2.090751 3.151 
728 632 -1.483784 1.675012 1.847 
744 632 -1.659536 1.370203 2.783 
760 632 -2.001350 1.386715 2.129 
776 632 -2.641328 2.006325 2.379 
792 632 -3.239095 2.005626 3.804 
808 632 -3.926911 1.878908 1.559 
824 632 -4.055129 1.839859 1.716 
840 632 -3.937340 1.645396 1.373 
856 632 -3.756515 1.160344 1.789 
872 632 -3.572336 0.814915 2.829 
888 632 -3.409662 1.211197 2.214 
904 632 -3.276809 1.566598 1.110 
920 632 -3.304005 1.196527 1.955 
936 632 -3.206472 0.842239 1.754 
952 632 -3.318217 1.096212 1.378 
968 632 -3.819998 1.614232 1.733 
984 632 -3.956547 1.345173 2.748 
1000 632 -4.064145 0.838944 1.799 
1016 632 -3.996008 0.051518 2.030 
1032 632 -3.765131 0.300028 3.034 
1048 632 -3.342920 1.035288 3.227 
1064 632 -3.078966 1.410529 2.079 
1080 632 -2.783742 1.421124 3.318 
1096 632 -2.800866 1.205879 2.908 
1112 632 -2.743267 1.077692 3.616 
1128 632 -2.450112 0.917138 3.240 
1144 632 -2.518438 0.912884 1.986 
1160 632 -2.904187 0.953416 2.793 
1176 632 -3.556510 0.891192 4.278 
1192 632 -3.604053 0.217862 2.178 
1208 632 -2.962435 0.004138 1.662 