TITLE = "B00162"
VARIABLES = "x", "y", "u", "v", "sn"
ZONE T="Frame 0", I=80, J=50
8 792 0.000000 -0.000000 1.021 
24 792 -4.598040 4.787466 1.000 
40 792 -9.525492 10.426893 1.024 
56 792 -7.403096 11.958241 1.480 
72 792 -5.280700 13.489589 1.043 
88 792 -3.158304 15.020937 1.024 
104 792 1.825287 13.453357 1.045 
120 792 5.612602 10.445224 1.245 
136 792 5.143925 7.634924 1.275 
152 792 2.053737 6.428930 1.043 
168 792 -1.036450 5.222936 1.037 
184 792 -4.126637 4.016942 1.434 
200 792 -4.690387 1.801490 2.132 
216 792 -5.008438 1.188242 1.891 
232 792 -5.326488 0.574994 1.391 
248 792 -6.344899 0.230882 1.034 
264 792 -10.502439 1.015864 1.330 
280 792 -9.424661 0.775443 1.190 
296 792 -8.346883 0.535022 1.777 
312 792 -7.269106 0.294600 3.816 
328 792 -6.191328 0.054179 2.382 
344 792 -5.639346 0.084129 1.782 
360 792 -5.639232 -0.377598 2.749 
376 792 -5.948237 -0.670694 5.340 
392 792 -6.458222 -0.714313 8.068 
408 792 -7.035663 -0.844140 4.190 
424 792 -7.045292 -0.783045 3.148 
440 792 -6.302946 -0.640525 1.081 
456 792 -5.895316 -0.897829 2.195 
472 792 -6.087012 -1.115584 2.520 
488 792 -6.237102 -0.876247 1.499 
504 792 -6.171310 -0.805760 2.279 
520 792 -6.080288 -1.256131 3.729 
536 792 -6.068232 -1.282185 1.991 
552 792 -6.012200 -1.211902 1.540 
568 792 -5.755069 -1.117674 1.438 
584 792 -5.920266 -1.154030 3.880 
600 792 -6.005461 -0.922267 1.604 
616 792 -5.838695 -0.460452 2.113 
632 792 -5.412925 -0.187746 1.331 
648 792 -5.179257 -0.445476 3.156 
664 792 -4.979196 -1.153098 1.681 
680 792 -5.025936 -1.728176 2.624 
696 792 -5.330195 -1.791356 2.323 
712 792 -5.659651 -1.607499 1.780 
728 792 -5.349493 -1.262624 1.846 
744 792 -4.944658 -0.716053 1.112 
760 792 -4.511472 -0.544239 2.382 
776 792 -3.918502 -0.668752 1.909 
792 792 -3.820575 -0.100840 1.389 
808 792 -3.722647 0.467072 3.127 
824 792 -4.207850 0.834329 3.307 
840 792 -4.185234 0.922205 2.317 
856 792 -3.947848 0.534717 2.282 
872 792 -4.053285 -0.017094 2.313 
888 792 -4.317471 0.053279 2.878 
904 792 -4.687033 0.740161 2.305 
920 792 -4.969336 1.426053 1.551 
936 792 -5.108764 1.318017 1.919 
952 792 -5.982534 -0.070187 2.445 
968 792 -5.996310 0.468265 1.597 
984 792 -4.862295 1.379562 2.505 
1000 792 -4.551058 1.875258 2.097 
1016 792 -4.789391 2.279606 1.465 
1032 792 -4.936775 1.656878 1.360 
1048 792 -4.786979 0.383472 2.077 
1064 792 -4.664328 -0.974551 3.869 
1080 792 -4.446938 -0.168319 1.878 
1096 792 -4.229548 0.637914 5.132 
1112 792 -3.262033 0.613394 6.094 
1128 792 -2.294518 0.588874 2.990 
1144 792 5.051551 -1.537731 1.031 
1160 792 7.327750 -4.100958 1.130 
1176 792 9.408674 -6.254997 1.131 
1192 792 11.438285 -6.087826 1.002 
1208 792 13.467897 -5.920655 1.028 
1224 792 -3.029550 -0.379282 1.062 
1240 792 -5.360842 8.137039 1.075 
1256 792 0.000000 -0.000000 1.002 
1272 792 0.000000 -0.000000 1.102 
8 776 -7.333990 5.153554 1.055 
24 776 -7.409052 7.718465 1.353 
40 776 -10.919153 11.870153 1.006 
56 776 -10.960886 16.786670 1.453 
72 776 -9.221014 14.437523 1.006 
88 776 -1.629955 15.369435 1.045 
104 776 1.832005 10.561789 1.019 
120 776 4.103709 5.343853 1.109 
136 776 1.605800 5.060969 1.235 
152 776 -2.279135 3.446871 1.027 
168 776 -3.434056 2.739022 1.023 
184 776 -4.588977 2.031173 1.434 
200 776 -5.027552 0.087229 1.976 
216 776 -5.094071 -0.000282 1.987 
232 776 -5.242967 0.006706 1.355 
248 776 -5.449537 -0.112872 1.012 
264 776 -3.840200 -0.598079 1.342 
280 776 -9.831099 0.953950 1.181 
296 776 -9.382044 0.855381 1.705 
312 776 -6.366058 0.066764 4.022 
328 776 -5.551643 -0.053501 2.438 
344 776 -5.724559 0.141245 1.695 
360 776 -5.866279 -0.332169 2.923 
376 776 -6.276072 -0.604063 2.699 
392 776 -6.628042 -0.709170 7.870 
408 776 -6.963378 -0.900512 4.005 
424 776 -6.892799 -0.761721 3.128 
440 776 -6.372358 -0.520458 1.139 
456 776 -6.001297 -0.709651 2.244 
472 776 -6.132264 -0.986217 2.658 
488 776 -6.314565 -0.713818 1.550 
504 776 -6.328230 -0.645692 2.323 
520 776 -6.191611 -1.080482 3.699 
536 776 -6.087997 -1.177015 1.949 
552 776 -6.004217 -1.203803 1.471 
568 776 -5.716546 -1.210536 1.321 
584 776 -5.866329 -1.166086 3.901 
600 776 -5.895908 -0.948855 1.607 
616 776 -5.782027 -0.364591 2.110 
632 776 -5.388258 0.060753 1.333 
648 776 -5.001471 -0.234832 3.327 
664 776 -4.711406 -0.995448 1.743 
680 776 -4.258420 -1.883077 2.581 
696 776 -4.870551 -1.814962 2.460 
712 776 -5.163885 -1.721386 1.868 
728 776 -5.023971 -1.394500 1.885 
744 776 -4.737721 -0.823206 1.107 
760 776 -4.340076 -0.653123 2.637 
776 776 -3.906952 -0.721320 2.075 
792 776 -3.506276 -0.295710 1.350 
808 776 -3.844557 0.409991 3.338 
824 776 -4.248000 0.801350 3.098 
840 776 -4.289590 0.895462 2.177 
856 776 -4.020484 0.555152 2.212 
872 776 -4.113827 0.094047 2.310 
888 776 -4.310991 0.158124 2.873 
904 776 -4.654896 0.746102 2.301 
920 776 -4.903222 1.418022 1.563 
936 776 -5.110942 1.411926 1.939 
952 776 -5.580368 1.034943 2.612 
968 776 -6.049793 0.657959 1.537 
984 776 -5.079136 1.602970 2.418 
1000 776 -4.928963 2.072452 2.239 
1016 776 -5.139937 2.348324 1.422 
1032 776 -5.167663 2.108755 1.278 
1048 776 -4.994739 0.230162 2.096 
1064 776 -4.777562 -1.229892 3.776 
1080 776 -4.562724 -0.493066 1.777 
1096 776 -4.962337 0.820553 4.875 
1112 776 -4.583021 0.708602 6.063 
1128 776 -4.203705 0.596652 2.848 
1144 776 1.990383 -1.739740 1.025 
1160 776 4.427467 -3.163533 1.109 
1176 776 6.997622 -6.455387 1.115 
1192 776 10.091336 -7.825388 1.014 
1208 776 8.564317 -3.391474 1.096 
1224 776 -1.088826 3.783780 1.150 
1240 776 -5.505188 9.227196 1.080 
1256 776 -5.627265 15.215348 1.028 
1272 776 0.000000 -0.000000 1.002 
8 760 -5.338646 4.366578 1.157 
24 760 -7.251687 7.158713 1.130 
40 760 -9.668861 12.270438 1.048 
56 760 -7.386743 17.790756 1.272 
72 760 -7.928562 17.614640 1.312 
88 760 -2.164621 16.060164 1.099 
104 760 0.029484 10.584372 1.031 
120 760 2.485651 7.225353 1.054 
136 760 -1.932326 2.487015 1.199 
152 760 -3.862031 2.435509 1.752 
168 760 -4.617124 2.124704 2.442 
184 760 -4.769238 1.497293 2.615 
200 760 -4.941329 0.498998 1.474 
216 760 -5.083231 -0.045015 1.219 
232 760 -5.193617 -0.256448 1.222 
248 760 -4.554174 -0.456626 1.150 
264 760 -5.096539 -0.294473 2.310 
280 760 -5.762485 0.134057 1.816 
296 760 -6.219986 0.252489 2.672 
312 760 -5.201651 -0.086273 1.909 
328 760 -4.938208 -0.131849 1.881 
344 760 -5.366090 0.167095 1.243 
360 760 -5.539706 -0.225724 4.121 
376 760 -6.077217 -0.401815 2.767 
392 760 -5.934708 -0.460221 3.677 
408 760 -5.623786 -0.489129 2.034 
424 760 -5.637103 -0.728769 1.560 
440 760 -5.288093 -0.320118 1.361 
456 760 -4.784502 -0.507507 2.069 
472 760 -5.098404 -0.869546 1.741 
488 760 -5.913453 -0.527337 2.150 
504 760 -6.023072 -0.488236 2.699 
520 760 -5.697432 -0.612582 6.187 
536 760 -5.434816 -0.726759 5.642 
552 760 -5.364673 -0.776510 1.627 
568 760 -4.955290 -0.985518 2.067 
584 760 -5.069496 -1.392086 2.603 
600 760 -5.200164 -0.999383 2.421 
616 760 -5.184596 -0.157041 2.477 
632 760 -4.826821 0.679283 2.683 
648 760 -4.338939 0.575175 1.802 
664 760 -4.147191 -0.865417 1.151 
680 760 -3.944100 -1.517758 1.473 
696 760 -4.083127 -1.744301 1.949 
712 760 -4.435253 -1.796999 1.929 
728 760 -4.386281 -1.537357 2.663 
744 760 -4.372993 -1.084000 3.679 
760 760 -4.110389 -1.038491 2.839 
776 760 -3.559425 -0.946069 2.828 
792 760 -3.622346 -0.371960 2.367 
808 760 -4.362247 0.011429 2.156 
824 760 -4.451405 0.381596 2.874 
840 760 -4.419591 0.526034 3.194 
856 760 -4.289083 0.350499 2.857 
872 760 -4.161716 0.198368 4.456 
888 760 -4.254412 0.239338 4.443 
904 760 -4.393506 0.528901 2.563 
920 760 -4.640338 1.159282 1.953 
936 760 -5.018940 1.458376 2.678 
952 760 -5.355883 1.435872 1.826 
968 760 -5.692825 1.413369 2.275 
984 760 -5.558579 1.980786 1.900 
1000 760 -5.502243 2.404897 2.254 
1016 760 -5.468936 2.455199 1.155 
1032 760 -5.389420 1.429253 1.811 
1048 760 -5.055372 -0.126252 2.251 
1064 760 -4.687442 -0.570962 2.222 
1080 760 -4.319512 -1.015672 2.016 
1096 760 -4.802810 1.490138 2.217 
1112 760 -4.273945 1.160544 2.743 
1128 760 -3.745081 0.830950 2.925 
1144 760 -1.516806 -0.561672 1.028 
1160 760 1.527184 -2.226107 1.067 
1176 760 6.229837 -1.627835 1.021 
1192 760 10.049789 -1.662779 1.134 
1208 760 7.063068 1.693915 1.240 
1224 760 0.805878 7.186664 1.089 
1240 760 -4.294198 6.685416 1.054 
1256 760 -5.116248 8.940071 1.011 
1272 760 0.000000 -0.000000 1.118 
8 744 -3.343302 3.579601 1.002 
24 744 -7.094321 6.598961 1.009 
40 744 -8.418570 12.670724 1.046 
56 744 -4.297173 15.321222 1.457 
72 744 -7.386436 14.137131 1.309 
88 744 -7.578378 9.301185 1.142 
104 744 -1.773037 10.606954 1.032 
120 744 0.760991 6.513834 1.036 
136 744 -3.800271 2.285851 1.173 
152 744 -4.678758 2.160492 2.608 
168 744 -5.168367 2.107133 4.354 
184 744 -4.893676 1.630602 2.734 
200 744 -4.463244 0.773673 2.992 
216 744 -4.604336 0.381049 1.569 
232 744 -4.881129 0.039946 1.930 
248 744 -4.786645 -0.267305 1.095 
264 744 -5.166684 -0.157868 1.283 
280 744 -5.247102 0.284929 2.181 
296 744 -5.229026 0.389573 2.447 
312 744 -4.875538 -0.250579 1.844 
328 744 -4.739965 -0.030225 1.673 
344 744 -4.850331 0.196826 1.098 
360 744 -5.170871 0.069975 1.068 
376 744 -5.440377 0.035341 1.007 
392 744 -5.025951 0.057046 1.670 
408 744 -3.876973 -0.086724 1.840 
424 744 -3.740507 -0.132720 2.163 
440 744 -4.003339 0.400094 1.184 
456 744 -4.018852 0.288436 1.885 
472 744 -4.326337 -0.418460 2.476 
488 744 -5.028946 -0.460695 3.593 
504 744 -5.278693 -0.414195 1.693 
520 744 -4.808046 -0.406064 3.332 
536 744 -4.619694 -0.433879 5.639 
552 744 -4.394163 -0.353507 2.200 
568 744 -3.995765 -0.890629 2.015 
584 744 -3.826672 -1.147812 1.640 
600 744 -3.802343 -0.719205 1.770 
616 744 -3.932119 0.187850 2.149 
632 744 -4.060573 1.324993 3.345 
648 744 -3.836640 0.958993 2.906 
664 744 -3.734864 -0.480106 1.214 
680 744 -3.639909 -0.994292 1.629 
696 744 -3.720682 -1.330662 2.270 
712 744 -3.939312 -1.790764 2.240 
728 744 -3.734450 -1.559672 2.648 
744 744 -3.909249 -1.357641 3.398 
760 744 -3.804731 -1.339507 4.460 
776 744 -3.529935 -1.457051 2.131 
792 744 -3.894359 -1.141743 2.513 
808 744 -4.169291 -0.733195 1.970 
824 744 -4.553513 -0.266825 1.988 
840 744 -4.393196 0.130777 2.681 
856 744 -4.509624 0.203838 1.719 
872 744 -4.183481 0.362853 2.840 
888 744 -4.033940 0.181076 3.260 
904 744 -3.852137 0.101305 3.019 
920 744 -3.948827 0.613495 2.531 
936 744 -4.418337 1.181470 4.449 
952 744 -5.195804 1.170052 1.813 
968 744 -5.025592 1.406294 2.249 
984 744 -5.257188 1.659269 2.646 
1000 744 -5.458722 2.003970 2.165 
1016 744 -5.192758 1.868539 1.349 
1032 744 -5.204634 1.210823 1.255 
1048 744 -4.902091 0.091955 2.431 
1064 744 -4.492311 -0.142511 1.039 
1080 744 -4.082532 -0.376978 1.274 
1096 744 -4.188462 2.156196 2.432 
1112 744 -4.127959 2.263013 3.090 
1128 744 -4.326754 0.097720 1.686 
1144 744 -3.275509 -0.398553 1.917 
1160 744 -0.755453 -0.543343 1.233 
1176 744 3.716982 -1.138265 1.049 
1192 744 7.421233 -0.085245 1.066 
1208 744 9.467596 6.238412 1.067 
1224 744 -0.773879 5.856735 1.071 
1240 744 -2.068010 7.787709 1.110 
1256 744 0.119282 9.828026 1.012 
1272 744 0.000000 -0.000000 1.078 
8 728 -1.347958 2.792624 1.019 
24 728 -1.645749 6.248732 1.028 
40 728 -2.431816 9.897672 1.231 
56 728 -1.207604 12.851688 1.189 
72 728 -4.070578 10.436101 1.075 
88 728 -7.473908 10.704090 1.021 
104 728 -8.476961 8.681577 1.089 
120 728 -5.588877 5.347230 1.018 
136 728 -5.097079 2.781359 1.179 
152 728 -5.169897 2.215576 1.592 
168 728 -5.269222 2.341735 2.090 
184 728 -4.803341 1.971045 2.698 
200 728 -4.412337 1.121543 2.135 
216 728 -4.405235 1.103694 2.179 
232 728 -4.914615 0.988762 1.558 
248 728 -4.908889 0.336140 1.541 
264 728 -4.903162 -0.316482 2.064 
280 728 -4.929343 0.365786 2.076 
296 728 -4.706763 0.234836 1.793 
312 728 -4.327209 0.076822 1.948 
328 728 -4.281895 -0.443213 2.114 
344 728 -4.275711 0.108818 1.327 
360 728 -4.473559 0.431793 1.314 
376 728 -4.450650 0.621288 1.089 
392 728 -3.898696 0.603374 1.394 
408 728 -2.556639 0.623445 3.019 
424 728 -2.950845 0.627698 2.736 
440 728 -3.525137 0.806383 1.756 
456 728 -4.161055 0.700382 2.326 
472 728 -3.922970 -0.211463 2.962 
488 728 -4.197493 -0.327613 2.296 
504 728 -4.295035 -0.344467 1.972 
520 728 -3.947316 -0.247383 2.563 
536 728 -3.585243 -0.209239 2.546 
552 728 -3.158440 -0.184219 1.927 
568 728 -2.831690 -0.393802 1.805 
584 728 -2.856042 -0.833607 2.531 
600 728 -3.558593 -0.506145 1.202 
616 728 -3.530139 0.565024 2.376 
632 728 -3.553707 1.322101 3.722 
648 728 -3.881476 0.866674 2.400 
664 728 -3.811863 0.153048 3.377 
680 728 -3.528426 -0.156772 2.292 
696 728 -3.562570 -0.818155 1.729 
712 728 -3.577950 -1.688341 3.068 
728 728 -3.803702 -1.669342 3.819 
744 728 -3.895785 -1.390824 1.896 
760 728 -3.793078 -1.494562 1.980 
776 728 -3.885562 -1.760833 2.334 
792 728 -3.857122 -1.629952 1.889 
808 728 -3.821876 -1.479182 1.754 
824 728 -4.100080 -1.047615 1.994 
840 728 -4.060532 -0.226116 2.119 
856 728 -4.167406 -0.113618 3.695 
872 728 -4.091671 0.484701 2.362 
888 728 -3.788765 0.013794 2.351 
904 728 -3.497574 -0.315701 1.670 
920 728 -3.160474 -0.012355 1.460 
936 728 -3.348089 0.383058 2.718 
952 728 -4.176855 0.936566 1.825 
968 728 -4.163460 1.033144 2.425 
984 728 -4.481352 1.068855 2.414 
1000 728 -4.781924 1.011294 1.829 
1016 728 -4.748922 0.950369 1.687 
1032 728 -4.731881 0.797459 3.589 
1048 728 -4.340820 0.102016 3.037 
1064 728 -4.145997 0.291889 2.248 
1080 728 -3.951174 0.481762 2.150 
1096 728 -4.121584 1.588146 3.547 
1112 728 -4.478203 1.637098 3.162 
1128 728 -4.587487 -0.359188 1.672 
1144 728 -4.177396 -0.918662 1.442 
1160 728 -2.556770 -0.506595 1.542 
1176 728 1.204127 -0.648696 1.023 
1192 728 4.792676 1.492290 1.213 
1208 728 2.473626 -1.133185 1.002 
1224 728 -2.859528 -0.987167 1.005 
1240 728 -1.987956 -4.855194 1.412 
1256 728 -0.615445 -3.918458 1.630 
1272 728 -0.498960 -3.602536 1.419 
8 712 5.386194 8.014643 1.152 
24 712 6.521943 8.738094 1.085 
40 712 8.449307 7.565707 1.156 
56 712 5.105180 8.029072 1.054 
72 712 -0.431807 10.528917 1.357 
88 712 -4.449729 11.335109 1.008 
104 712 -7.339790 6.620394 1.050 
120 712 -5.631326 3.398251 1.332 
136 712 -4.477911 1.557048 1.649 
152 712 -4.262359 1.323856 1.163 
168 712 -4.664006 2.013071 1.117 
184 712 -4.977306 2.268960 1.253 
200 712 -4.361430 1.469413 2.025 
216 712 -4.450991 1.014384 1.789 
232 712 -4.905989 0.691169 1.247 
248 712 -4.674500 -0.314468 1.076 
264 712 -4.603641 -0.412454 1.638 
280 712 -4.467650 0.044195 1.465 
296 712 -4.252315 -0.068409 1.028 
312 712 -3.421868 -0.726171 4.343 
328 712 -3.266546 -0.505991 5.674 
344 712 -3.471604 -0.032991 1.314 
360 712 -3.520117 0.770893 2.053 
376 712 -3.351989 1.166019 1.225 
392 712 -2.744181 1.014078 1.811 
408 712 -2.019124 0.968997 1.346 
424 712 -2.062797 0.708304 2.346 
440 712 -3.005500 0.956090 1.530 
456 712 -3.550997 0.367306 1.627 
472 712 -3.219894 -0.275517 4.170 
488 712 -3.208887 -0.293650 2.008 
504 712 -2.970974 -0.016682 2.918 
520 712 -2.757943 0.398118 2.063 
536 712 -2.579930 0.210689 1.617 
552 712 -2.809807 0.069147 3.196 
568 712 -2.634329 0.013145 2.643 
584 712 -2.997464 -0.596738 2.389 
600 712 -3.127379 -0.447954 1.159 
616 712 -3.194243 0.515742 2.268 
632 712 -3.367052 1.057513 1.750 
648 712 -4.057360 0.454174 1.324 
664 712 -3.870251 0.187552 1.784 
680 712 -3.433915 0.213666 1.699 
696 712 -3.354909 -0.150392 3.287 
712 712 -3.546533 -1.579465 2.511 
728 712 -3.827469 -1.818952 2.963 
744 712 -3.973895 -1.093611 1.384 
760 712 -3.746807 -1.103808 1.153 
776 712 -3.677391 -1.781340 2.056 
792 712 -3.628924 -1.659372 2.529 
808 712 -3.402770 -1.608082 1.637 
824 712 -3.738734 -1.415992 1.618 
840 712 -3.732800 -0.738847 1.370 
856 712 -3.689123 -0.006453 2.092 
872 712 -3.872177 0.317235 1.231 
888 712 -3.607849 -0.164840 1.621 
904 712 -3.348449 -0.396831 2.178 
920 712 -3.250054 0.225194 1.588 
936 712 -3.073206 0.429699 1.951 
952 712 -3.835921 0.746976 2.361 
968 712 -3.819408 0.609291 2.889 
984 712 -4.064962 0.387345 2.689 
1000 712 -4.472109 0.285484 1.217 
1016 712 -4.682245 0.496188 2.111 
1032 712 -4.418825 0.627716 2.950 
1048 712 -3.708610 0.386867 3.342 
1064 712 -3.544370 0.450153 1.820 
1080 712 -3.380131 0.513439 1.316 
1096 712 -3.765310 1.012927 3.345 
1112 712 -3.955120 0.828758 4.811 
1128 712 -4.281407 -0.031200 3.706 
1144 712 -4.284995 -1.068292 1.940 
1160 712 -4.303601 -0.719494 2.206 
1176 712 -4.196145 -0.786336 2.442 
1192 712 -4.674756 -2.050213 1.003 
1208 712 -4.520343 -8.504781 1.316 
1224 712 -4.538078 -8.295529 1.411 
1240 712 -3.501777 -7.672343 1.220 
1256 712 -1.491177 -7.281957 1.818 
1272 712 -0.282528 -8.210419 1.598 
8 696 14.658888 10.612243 1.005 
24 696 12.463866 9.887022 1.012 
40 696 14.378727 6.781935 1.098 
56 696 10.801029 5.461396 1.172 
72 696 4.365729 9.246870 1.898 
88 696 -3.134800 5.395861 1.123 
104 696 -5.508114 3.157560 1.014 
120 696 -4.827780 1.834744 1.673 
136 696 -4.628476 1.235114 1.912 
152 696 -4.527398 1.449854 2.564 
168 696 -4.891785 1.551130 1.223 
184 696 -5.219190 1.418104 1.065 
200 696 -5.086574 0.843303 1.089 
216 696 -4.496747 0.925074 1.560 
232 696 -4.897364 0.393576 1.113 
248 696 -4.440111 -0.965076 1.734 
264 696 -4.322963 -0.735939 1.617 
280 696 -4.205815 -0.506803 2.871 
296 696 -3.874946 0.082971 1.249 
312 696 -2.900590 -0.255630 2.887 
328 696 -2.690534 -0.515780 6.329 
344 696 -2.667708 0.091820 1.157 
360 696 -2.660981 1.043768 1.950 
376 696 -2.409281 1.525427 1.216 
392 696 -2.155852 1.496669 1.641 
408 696 -2.214903 1.175384 1.982 
424 696 -1.855635 1.116167 2.269 
440 696 -1.717534 0.833928 2.604 
456 696 -2.057751 0.298768 2.355 
472 696 -1.992008 -0.304852 2.604 
488 696 -1.819571 -0.323667 1.676 
504 696 -1.646914 0.311102 2.025 
520 696 -1.523473 0.487995 2.720 
536 696 -1.585617 0.493628 2.170 
552 696 -1.923122 0.075934 2.364 
568 696 -2.068651 -0.182552 2.171 
584 696 -2.502376 -0.411937 1.443 
600 696 -2.782864 -0.640848 2.097 
616 696 -2.870191 0.105377 2.561 
632 696 -3.180397 0.792926 2.429 
648 696 -3.609541 0.471631 3.424 
664 696 -3.738093 -0.141325 2.284 
680 696 -3.499714 0.061245 2.801 
696 696 -3.326965 -0.106879 2.665 
712 696 -3.533490 -1.471062 2.941 
728 696 -3.860136 -1.802842 2.646 
744 696 -4.029259 -0.778716 1.101 
760 696 -3.744602 -0.612217 1.169 
776 696 -3.136037 -1.172014 1.888 
792 696 -3.322643 -1.331210 3.125 
808 696 -3.386791 -1.425279 3.238 
824 696 -3.428286 -1.407632 5.049 
840 696 -3.390967 -0.937228 3.346 
856 696 -3.169727 0.236044 1.903 
872 696 -3.337486 0.500380 2.087 
888 696 -3.316083 0.093502 2.287 
904 696 -3.315076 0.201155 2.377 
920 696 -3.339635 0.462744 1.413 
936 696 -3.063327 0.526739 2.031 
952 696 -3.494986 0.557387 2.278 
968 696 -3.896344 0.106325 2.009 
984 696 -4.184039 -0.588180 3.082 
1000 696 -4.790093 -0.315463 3.337 
1016 696 -4.837870 0.160523 3.881 
1032 696 -4.270358 0.551622 3.412 
1048 696 -3.504698 0.613333 2.665 
1064 696 -2.925434 0.462852 2.788 
1080 696 -3.095663 0.500700 1.399 
1096 696 -3.455442 0.601366 3.223 
1112 696 -3.634311 0.305850 3.753 
1128 696 -3.786025 -0.255398 5.306 
1144 696 -3.913285 -1.064882 2.083 
1160 696 -3.694587 -1.649293 2.177 
1176 696 -3.982730 -2.144445 1.753 
1192 696 -4.523751 -3.720842 1.004 
1208 696 -5.068399 -7.801879 1.348 
1224 696 -5.726105 -9.914744 1.626 
1240 696 -4.062127 -9.435981 1.310 
1256 696 -2.600902 -10.089564 1.662 
1272 696 -1.534178 -11.372079 1.508 
8 680 23.376332 12.825975 1.009 
24 680 16.977512 11.974071 1.061 
40 680 14.882517 5.430880 1.228 
56 680 13.451983 4.131021 1.193 
72 680 5.257483 4.341507 1.047 
88 680 -2.485266 -0.138294 1.534 
104 680 -4.352254 0.353241 1.098 
120 680 -4.285397 1.168061 1.622 
136 680 -5.020140 1.363695 2.200 
152 680 -4.792437 1.575853 1.194 
168 680 -5.166497 1.214257 1.014 
184 680 -5.461074 0.567248 1.107 
200 680 -5.561602 0.146038 1.353 
216 680 -5.096772 0.272533 2.243 
232 680 -4.374335 -0.245113 2.551 
248 680 -4.140037 -1.471650 1.106 
264 680 -3.907630 -1.175648 1.167 
280 680 -3.601645 -0.309504 1.034 
296 680 -3.126114 0.749518 1.058 
312 680 -2.428917 0.412636 1.074 
328 680 -2.524409 0.068236 2.716 
344 680 -2.489920 0.409218 1.688 
360 680 -2.264353 1.284652 1.756 
376 680 -1.849223 1.610058 2.299 
392 680 -1.989212 1.473751 1.651 
408 680 -2.380467 1.359131 2.375 
424 680 -2.089662 1.260900 2.538 
440 680 -2.067315 1.135583 1.658 
456 680 -2.506050 0.883495 2.583 
472 680 -2.017143 0.208785 2.717 
488 680 -1.308669 0.217962 2.335 
504 680 -0.777531 0.509919 1.919 
520 680 -0.470831 1.119469 1.626 
536 680 -0.538799 0.994608 2.459 
552 680 -0.854083 0.327677 1.106 
568 680 -1.101116 -0.250461 1.461 
584 680 -1.600697 -0.578478 2.047 
600 680 -2.010308 -0.796209 1.420 
616 680 -2.674350 -0.391667 1.768 
632 680 -2.936394 0.347362 2.034 
648 680 -3.315914 0.207428 2.619 
664 680 -3.494597 -0.188914 5.674 
680 680 -3.565513 -0.091175 1.796 
696 680 -3.687867 -0.316948 2.298 
712 680 -3.745993 -1.643973 2.046 
728 680 -3.795979 -2.085680 2.114 
744 680 -4.167762 -0.850060 1.159 
760 680 -3.891471 -0.427070 1.068 
776 680 -3.273783 -0.795076 2.781 
792 680 -3.259489 -0.957590 4.309 
808 680 -3.355031 -1.097784 5.337 
824 680 -3.271287 -1.056211 4.419 
840 680 -3.186307 -0.390282 3.092 
856 680 -3.054827 0.556545 2.572 
872 680 -3.289323 0.802979 2.439 
888 680 -3.321103 0.928525 2.097 
904 680 -3.407983 0.752013 1.707 
920 680 -3.436603 0.826645 1.623 
936 680 -3.272612 0.547271 1.821 
952 680 -3.639518 -0.268329 3.190 
968 680 -3.882257 -0.812116 2.365 
984 680 -3.999713 -1.378863 1.199 
1000 680 -4.428187 -0.905003 1.590 
1016 680 -4.571916 -0.164177 2.079 
1032 680 -3.955473 0.421872 2.450 
1048 680 -3.346416 0.615090 2.822 
1064 680 -3.119660 0.513078 2.209 
1080 680 -3.128867 0.804735 2.360 
1096 680 -3.216215 0.319043 2.763 
1112 680 -3.431295 -0.118301 2.400 
1128 680 -3.474732 -0.785514 4.334 
1144 680 -3.230649 -1.498593 2.331 
1160 680 -3.402852 -1.939605 4.306 
1176 680 -4.423269 -2.139841 2.083 
1192 680 -4.523763 -3.576656 2.135 
1208 680 -5.616456 -7.098976 1.085 
1224 680 -6.046398 -10.603397 1.030 
1240 680 -5.831032 -10.896827 1.418 
1256 680 -4.871637 -11.335601 1.029 
1272 680 -4.103327 -11.649621 1.014 
8 664 27.897581 14.235303 1.208 
24 664 21.063250 13.749168 1.266 
40 664 12.523049 5.146763 1.142 
56 664 13.672370 4.808043 1.196 
72 664 4.989411 1.823981 1.206 
88 664 -3.352477 -1.164666 1.246 
104 664 -3.916939 0.513015 1.029 
120 664 -4.432925 1.183284 1.098 
136 664 -4.728905 1.342188 1.550 
152 664 -4.126155 1.426795 1.308 
168 664 -4.218587 1.271210 1.088 
184 664 -4.653696 0.615085 1.188 
200 664 -5.107223 0.276713 1.251 
216 664 -4.768039 0.032521 2.835 
232 664 -3.951924 -0.526003 1.655 
248 664 -3.481573 -0.818387 1.236 
264 664 -3.055625 -0.413364 1.062 
280 664 -2.749332 0.690252 1.832 
296 664 -2.287448 1.616749 1.678 
312 664 -1.963068 1.275005 1.517 
328 664 -1.523831 0.465451 1.137 
344 664 -1.796599 0.907032 1.816 
360 664 -1.718076 1.614901 1.657 
376 664 -1.427238 1.841911 2.609 
392 664 -1.856193 1.569429 1.519 
408 664 -1.979000 1.390839 2.239 
424 664 -2.176002 1.320782 1.858 
440 664 -2.602292 1.335789 1.973 
456 664 -2.729490 1.063492 2.177 
472 664 -2.527107 1.002133 2.325 
488 664 -1.494776 1.103835 2.523 
504 664 -0.830848 1.335018 2.025 
520 664 -0.357833 1.690146 2.237 
536 664 -0.644696 1.766105 1.501 
552 664 -0.822324 0.852662 1.117 
568 664 -0.980788 -0.125168 2.485 
584 664 -1.419786 -0.476270 2.688 
600 664 -1.471017 -0.739434 1.685 
616 664 -1.679192 -0.508118 2.432 
632 664 -2.528864 -0.045442 1.940 
648 664 -3.152763 -0.110406 2.334 
664 664 -3.489916 -0.347245 4.978 
680 664 -3.710371 -0.310178 1.308 
696 664 -3.922658 -0.380307 1.971 
712 664 -3.794107 -1.546544 2.848 
728 664 -3.534112 -1.731266 1.318 
744 664 -3.537636 -1.203950 2.229 
760 664 -3.947465 -0.326744 1.190 
776 664 -3.784300 -0.449773 2.463 
792 664 -3.348759 -0.545210 1.752 
808 664 -3.388387 -0.609906 2.592 
824 664 -3.074110 -0.364312 2.890 
840 664 -2.838816 0.243839 2.958 
856 664 -3.027271 0.791845 2.626 
872 664 -3.241160 1.105579 1.895 
888 664 -2.927505 0.872120 2.948 
904 664 -3.337997 1.243532 2.015 
920 664 -3.249860 0.937497 2.662 
936 664 -3.034916 0.473382 3.066 
952 664 -2.961121 -0.254176 2.443 
968 664 -3.286123 -0.764916 2.067 
984 664 -3.219614 -1.470044 1.373 
1000 664 -2.968677 -0.894821 2.763 
1016 664 -2.717740 -0.319599 4.050 
1032 664 -2.894840 0.343800 2.557 
1048 664 -2.969226 0.876458 2.368 
1064 664 -3.105246 0.742256 1.731 
1080 664 -3.363462 0.617265 1.480 
1096 664 -3.185373 0.227177 2.491 
1112 664 -3.213474 -0.305083 2.734 
1128 664 -3.486443 -1.015085 1.879 
1144 664 -3.124448 -1.625158 1.297 
1160 664 -3.189516 -1.680970 1.326 
1176 664 -3.249087 -1.857512 2.125 
1192 664 -3.910742 -2.563428 3.843 
1208 664 -4.952154 -0.951107 1.016 
1224 664 -5.889492 -5.181189 1.073 
1240 664 -7.299716 -7.487793 1.269 
1256 664 -7.934300 -9.692763 1.219 
1272 664 -6.672476 -11.927162 1.116 
8 648 31.333463 13.580851 1.036 
24 648 26.507977 14.867454 1.052 
40 648 19.141120 10.112512 1.076 
56 648 11.742135 7.997643 1.059 
72 648 4.581297 2.690178 1.342 
88 648 -2.065895 0.284397 1.238 
104 648 -3.481624 0.672789 1.215 
120 648 -4.349507 1.574328 1.564 
136 648 -4.093804 1.410095 1.528 
152 648 -3.617891 1.051801 1.455 
168 648 -3.446234 1.170602 2.339 
184 648 -3.287127 1.044363 1.690 
200 648 -3.314658 0.380063 1.482 
216 648 -3.926228 0.325940 1.716 
232 648 -2.948440 -0.125188 2.396 
248 648 -2.744305 -0.034772 3.032 
264 648 -2.306021 0.725074 2.302 
280 648 -1.964242 1.317760 1.242 
296 648 -1.659932 1.724354 1.042 
312 648 -1.313655 1.487012 1.722 
328 648 -1.117370 0.993738 2.446 
344 648 -1.171841 1.288217 2.187 
360 648 -1.275574 1.725159 1.874 
376 648 -1.436917 1.894290 2.496 
392 648 -1.542418 1.662657 2.148 
408 648 -1.291786 1.153334 2.231 
424 648 -1.288908 0.975654 1.793 
440 648 -2.262006 1.029634 3.558 
456 648 -2.952929 1.243489 2.457 
472 648 -2.143340 0.868579 2.096 
488 648 -1.843958 1.316320 1.262 
504 648 -1.455381 1.787760 2.050 
520 648 -1.175851 1.711844 2.456 
536 648 -1.343114 1.734169 1.907 
552 648 -1.490417 1.207208 1.442 
568 648 -1.585363 0.542442 2.871 
584 648 -1.246802 0.419072 2.319 
600 648 -1.111331 -0.274200 2.016 
616 648 -1.911729 -0.472826 2.479 
632 648 -2.708884 -0.290856 3.391 
648 648 -3.228044 -0.383005 1.982 
664 648 -3.401770 -0.784494 1.968 
680 648 -3.601129 -0.461415 3.039 
696 648 -3.904219 -0.515469 2.120 
712 648 -3.835582 -1.140475 2.047 
728 648 -3.272245 -1.376852 2.494 
744 648 -3.249933 -0.986206 2.546 
760 648 -3.431148 -0.408907 1.208 
776 648 -3.109604 -0.326709 1.944 
792 648 -2.754953 -0.282375 1.769 
808 648 -2.868120 -0.100099 1.774 
824 648 -2.762974 0.116215 2.164 
840 648 -2.615692 0.466523 2.926 
856 648 -2.948682 0.373852 2.398 
872 648 -2.964115 0.360700 2.806 
888 648 -2.533907 0.815716 2.539 
904 648 -2.553317 1.273867 2.036 
920 648 -2.680871 1.111023 2.059 
936 648 -2.509411 0.571220 1.807 
952 648 -2.384949 -0.127361 1.921 
968 648 -2.847282 -0.380083 2.941 
984 648 -2.642240 -0.430763 1.814 
1000 648 -2.394664 -0.346751 3.447 
1016 648 -2.147088 -0.262739 2.173 
1032 648 -2.820474 0.309752 2.248 
1048 648 -2.803196 1.178566 1.445 
1064 648 -3.128150 1.070507 1.626 
1080 648 -3.256136 0.739838 1.890 
1096 648 -3.372040 0.216686 2.617 
1112 648 -3.338247 -0.447015 2.169 
1128 648 -3.401060 -1.364925 1.011 
1144 648 -3.082769 -1.796077 1.479 
1160 648 -3.197173 -1.592368 1.575 
1176 648 -3.219507 -1.456312 2.844 
1192 648 -3.311703 -1.563224 2.303 
1208 648 -4.355516 -0.309496 2.471 
1224 648 -6.333478 -0.401783 1.622 
1240 648 -8.768400 -4.078759 1.039 
1256 648 -11.732752 -8.966410 1.066 
1272 648 -12.584016 -12.527434 1.197 
8 632 34.769346 12.926399 1.153 
24 632 29.267162 11.682995 1.132 
40 632 17.724341 9.811923 1.148 
56 632 8.407434 7.296399 1.200 
72 632 3.493473 3.603935 1.021 
88 632 -2.396436 0.477752 1.445 
104 632 -3.060608 0.581243 1.209 
120 632 -2.834948 1.432173 1.974 
136 632 -3.243563 0.908796 1.606 
152 632 -2.758298 1.026188 1.670 
168 632 -2.447373 1.104729 1.956 
184 632 -2.311463 1.270832 1.225 
200 632 -1.422328 0.658072 1.278 
216 632 -0.758392 0.482066 1.334 
232 632 -1.715563 0.423288 1.329 
248 632 -1.867455 0.887757 2.349 
264 632 -1.727706 1.322276 1.768 
280 632 -1.575814 1.531818 1.196 
296 632 -1.270751 1.731630 1.274 
312 632 -1.031674 1.723220 1.141 
328 632 -0.791938 1.399568 2.873 
344 632 -0.764188 1.852130 3.629 
360 632 -0.893078 2.177549 3.379 
376 632 -1.040838 1.886874 2.910 
392 632 -1.036015 1.403936 1.602 
408 632 -0.683624 0.860812 1.978 
424 632 -0.905505 0.568843 1.612 
440 632 -1.525913 0.728031 1.991 
456 632 -1.821519 0.599207 2.050 
472 632 -1.759573 0.735024 1.167 
488 632 -1.746225 1.230215 1.033 
504 632 -1.663218 1.527563 1.136 
520 632 -1.993869 1.733543 1.674 
536 632 -2.027724 1.541947 2.150 
552 632 -2.071460 1.374554 1.982 
568 632 -2.180170 1.155501 3.575 
584 632 -1.705697 1.110452 3.553 
600 632 -1.911714 0.735883 2.288 
616 632 -2.434806 -0.400484 1.986 
632 632 -2.889254 -0.571911 1.451 
648 632 -3.229915 -0.833809 1.058 
664 632 -3.296439 -1.288036 1.154 
680 632 -3.522086 -1.019247 4.112 
696 632 -3.899125 -0.965252 2.634 
712 632 -3.923924 -1.391161 2.401 
728 632 -3.718228 -1.167276 2.211 
744 632 -3.323866 -0.864707 1.149 
760 632 -3.061073 -0.498751 1.519 
776 632 -1.776657 -0.487740 1.163 
792 632 -1.538324 -0.201762 1.527 
808 632 -1.686456 0.035288 2.486 
824 632 -1.676287 0.191534 2.117 
840 632 -2.038907 0.333799 2.128 
856 632 -2.266038 0.199616 2.119 
872 632 -1.594614 0.390009 2.978 
888 632 -1.278677 1.117822 1.558 
904 632 -1.595896 1.726557 2.224 
920 632 -2.107579 1.309995 2.335 
936 632 -2.256643 0.488824 1.727 
952 632 -2.281601 -0.116198 2.075 
968 632 -2.414503 -0.374294 1.882 
984 632 -2.956097 -0.421387 1.678 
1000 632 -3.222474 -0.382988 2.355 
1016 632 -3.000317 -0.414727 1.604 
1032 632 -2.746108 0.275704 1.773 