TITLE = "B00106"
VARIABLES = "x", "y", "u", "v", "sn"
ZONE T="Frame 0", I=80, J=50
8 792 0.000000 -0.000000 1.257 
24 792 0.000000 -0.000000 1.191 
40 792 0.267556 -12.133507 1.054 
56 792 -0.212051 -11.974010 1.094 
72 792 -3.905430 -9.153103 1.019 
88 792 -7.598808 -6.332197 1.117 
104 792 2.671283 -3.952117 1.026 
120 792 7.628884 -3.614496 1.051 
136 792 12.586484 -3.276874 1.501 
152 792 1.663730 -0.051090 1.276 
168 792 -2.397454 2.136318 1.537 
184 792 -3.828177 2.614999 1.414 
200 792 -3.609066 2.671669 3.033 
216 792 -3.169035 2.398938 1.073 
232 792 -3.322497 2.129261 2.992 
248 792 -3.709462 1.809860 1.515 
264 792 -3.658339 1.755538 1.466 
280 792 -3.588663 1.740846 1.883 
296 792 -3.963266 1.736959 3.221 
312 792 -4.026568 1.868827 1.645 
328 792 -4.137633 1.909316 2.422 
344 792 -4.357510 1.816512 1.774 
360 792 -4.314864 1.899202 1.384 
376 792 -4.139176 2.082163 1.684 
392 792 -4.500691 1.739551 1.049 
408 792 -4.677755 1.261459 1.210 
424 792 -4.854820 0.783368 1.711 
440 792 -4.020792 0.785553 2.787 
456 792 -3.266934 1.047556 2.654 
472 792 -3.364066 1.900876 1.590 
488 792 -3.836852 2.842117 1.071 
504 792 -5.584801 2.888946 1.668 
520 792 -7.332750 2.935776 2.378 
536 792 -7.083408 2.309699 2.850 
552 792 -6.834067 1.683622 2.129 
568 792 -5.974960 1.467447 2.843 
584 792 -5.931052 1.610035 2.570 
600 792 -6.511086 1.428074 4.106 
616 792 -7.042752 1.173344 2.552 
632 792 -7.306030 0.826087 2.696 
648 792 -7.434281 0.451301 3.462 
664 792 -7.416743 0.346267 2.557 
680 792 -7.573454 0.463712 1.902 
696 792 -7.683745 0.572383 1.705 
712 792 -7.835466 0.616986 5.732 
728 792 -8.115947 0.401658 5.072 
744 792 -8.446930 -0.349924 5.103 
760 792 -8.286204 -0.448262 3.389 
776 792 -7.949813 0.277666 1.814 
792 792 -7.639282 0.435236 1.449 
808 792 -7.719172 -0.005794 2.381 
824 792 -8.541961 -0.003095 2.836 
840 792 -9.060326 0.016759 2.241 
856 792 -8.999723 -0.246565 2.973 
872 792 -9.170692 -0.584729 4.043 
888 792 -9.239107 -0.559378 3.056 
904 792 -9.121333 -0.599257 2.924 
920 792 -8.912475 -1.067225 1.948 
936 792 -9.177749 -1.174580 2.544 
952 792 -9.620485 -1.134946 3.516 
968 792 -9.607969 -1.229369 2.948 
984 792 -9.609667 -1.010767 1.648 
1000 792 -9.589370 -0.826100 2.501 
1016 792 -9.546213 -1.027636 2.612 
1032 792 -9.248189 -1.307574 1.719 
1048 792 -9.204094 -1.336062 2.136 
1064 792 -9.349962 -1.360121 1.649 
1080 792 -9.711838 -0.862737 1.725 
1096 792 -11.672923 -0.885793 1.471 
1112 792 -13.634008 -0.908848 1.287 
1128 792 -15.595094 -0.931904 1.068 
1144 792 -16.787338 -0.110446 1.147 
1160 792 -7.309820 2.788615 1.406 
1176 792 -5.948890 8.357475 1.173 
1192 792 -5.237061 6.851311 1.127 
1208 792 -4.525233 5.345147 1.109 
1224 792 -1.362219 -0.883399 1.078 
1240 792 -0.813577 0.490054 1.242 
1256 792 -0.264935 1.863506 1.103 
1272 792 0.000000 -0.000000 1.070 
8 776 3.523292 -10.620764 1.280 
24 776 4.263570 -11.905654 1.220 
40 776 -1.209041 -17.983490 1.015 
56 776 -2.462881 -15.655971 1.044 
72 776 -3.914735 -9.933900 1.022 
88 776 -5.366588 -4.211830 1.147 
104 776 -0.541059 -3.208620 1.043 
120 776 9.954947 -3.541288 1.154 
136 776 9.408674 -2.363337 1.341 
152 776 -0.834912 0.608877 1.303 
168 776 -3.249316 2.497549 1.759 
184 776 -3.799947 2.717733 1.629 
200 776 -3.608727 2.731964 3.123 
216 776 -3.218005 2.470066 1.069 
232 776 -3.333116 2.305395 3.159 
248 776 -3.630363 2.021526 1.518 
264 776 -3.578484 1.908878 1.424 
280 776 -3.441367 1.813239 1.848 
296 776 -3.769096 1.794667 2.968 
312 776 -3.660283 2.224873 1.626 
328 776 -3.959929 1.955523 2.238 
344 776 -4.087999 1.699386 1.736 
360 776 -3.997469 1.935887 1.435 
376 776 -3.753389 2.115023 1.767 
392 776 -4.135074 1.792479 1.093 
408 776 -4.490914 1.220898 1.071 
424 776 -4.391992 0.805539 1.672 
440 776 -3.613311 0.809560 2.957 
456 776 -2.880386 1.049287 2.789 
472 776 -2.978782 1.804090 1.579 
488 776 -3.532572 2.644760 1.138 
504 776 -5.157838 2.732760 1.873 
520 776 -6.783105 2.820761 2.393 
536 776 -7.389308 2.082890 2.802 
552 776 -6.669617 1.518780 2.222 
568 776 -6.001621 1.354393 2.700 
584 776 -5.935043 1.502898 2.572 
600 776 -6.483440 1.363059 4.402 
616 776 -6.993206 1.115058 2.545 
632 776 -7.235662 0.762530 2.717 
648 776 -7.373778 0.430306 3.326 
664 776 -7.355150 0.329338 2.442 
680 776 -7.481001 0.453806 2.222 
696 776 -7.588834 0.590573 2.077 
712 776 -7.776825 0.691389 5.429 
728 776 -8.030271 0.467722 5.086 
744 776 -8.287851 -0.188456 4.794 
760 776 -8.108309 -0.337974 3.548 
776 776 -7.825502 0.274349 1.762 
792 776 -7.569747 0.360680 1.476 
808 776 -7.608060 -0.036114 2.430 
824 776 -8.357389 -0.050382 3.228 
840 776 -8.871419 -0.080477 2.277 
856 776 -8.935129 -0.295775 2.823 
872 776 -9.124803 -0.605007 4.178 
888 776 -9.169318 -0.574839 3.222 
904 776 -9.094153 -0.627772 3.088 
920 776 -8.959869 -1.018793 1.922 
936 776 -9.150517 -1.071344 2.670 
952 776 -9.539579 -1.037862 3.236 
968 776 -9.567666 -1.147882 2.897 
984 776 -9.517992 -1.038965 1.682 
1000 776 -9.578652 -0.893601 2.663 
1016 776 -9.537403 -1.102451 2.655 
1032 776 -9.320409 -1.333211 1.664 
1048 776 -9.314340 -1.360863 2.001 
1064 776 -9.552571 -1.336332 1.564 
1080 776 -9.954455 -1.001351 1.728 
1096 776 -10.251672 -0.757259 1.450 
1112 776 -10.841837 -1.554594 1.321 
1128 776 -13.379248 -1.337302 1.096 
1144 776 -12.133449 -0.377102 1.100 
1160 776 -7.550090 2.290779 1.382 
1176 776 -5.685366 7.548392 1.087 
1192 776 -5.108262 7.816947 1.046 
1208 776 -2.441413 2.006341 1.008 
1224 776 0.917233 -4.394396 1.074 
1240 776 1.927801 -3.263877 1.227 
1256 776 0.969739 -0.260687 1.118 
1272 776 -0.324097 0.936861 1.092 
8 760 5.896591 -13.435844 1.075 
24 760 1.297941 -11.047272 1.019 
40 760 -1.538562 -13.025523 1.394 
56 760 -1.378718 -9.846703 1.067 
72 760 -1.682515 -7.813533 1.186 
88 760 -3.134368 -2.091462 1.044 
104 760 -0.079913 -1.197483 1.058 
120 760 4.458159 -1.393921 1.080 
136 760 3.038297 -1.454131 1.022 
152 760 -2.057207 1.322056 1.391 
168 760 -3.734744 3.078779 3.467 
184 760 -3.818074 3.310103 2.386 
200 760 -3.845535 3.050730 2.421 
216 760 -3.447194 3.034890 1.473 
232 760 -3.563157 2.919504 1.359 
248 760 -3.720828 2.420645 2.252 
264 760 -3.442879 2.206182 1.755 
280 760 -3.148138 2.082905 1.695 
296 760 -3.169487 2.034939 2.556 
312 760 -3.183982 2.095242 1.668 
328 760 -3.590643 2.093528 2.479 
344 760 -3.818489 1.582261 1.474 
360 760 -3.509478 1.718695 3.573 
376 760 -3.331277 1.958481 1.898 
392 760 -3.554026 1.747051 1.848 
408 760 -3.878119 1.328596 1.222 
424 760 -3.816832 1.023502 1.170 
440 760 -3.326929 0.836229 1.209 
456 760 -2.847776 0.965693 1.053 
472 760 -2.947961 1.517164 1.713 
488 760 -3.533437 2.187648 1.688 
504 760 -4.622810 2.909103 3.094 
520 760 -6.050832 2.868713 1.785 
536 760 -6.632775 2.068355 2.557 
552 760 -6.342642 1.359249 2.445 
568 760 -5.988087 1.247324 2.549 
584 760 -5.871911 1.438406 3.300 
600 760 -6.281202 1.381265 2.155 
616 760 -6.776406 1.055561 2.862 
632 760 -7.161641 0.690498 4.014 
648 760 -7.294802 0.347295 2.715 
664 760 -7.249417 0.269210 2.155 
680 760 -7.305815 0.349597 2.414 
696 760 -7.479116 0.431608 1.915 
712 760 -7.744884 0.664319 3.083 
728 760 -7.992946 0.575224 2.875 
744 760 -8.183245 0.044250 2.040 
760 760 -7.929533 -0.282286 2.471 
776 760 -8.038445 -0.408942 1.852 
792 760 -7.658810 0.083959 1.094 
808 760 -7.563905 -0.160948 1.747 
824 760 -8.082162 -0.146601 2.886 
840 760 -8.673590 -0.226541 2.845 
856 760 -8.779928 -0.427568 2.848 
872 760 -8.809495 -0.487532 3.805 
888 760 -9.151318 -0.579979 2.977 
904 760 -9.054043 -0.507913 4.775 
920 760 -8.837215 -0.638212 2.346 
936 760 -8.886256 -0.732333 3.147 
952 760 -9.344581 -0.848912 3.260 
968 760 -9.596128 -0.914214 2.754 
984 760 -9.426316 -1.067163 1.514 
1000 760 -9.468864 -1.068771 1.997 
1016 760 -9.451253 -1.227880 2.443 
1032 760 -9.235250 -1.434409 1.584 
1048 760 -9.374172 -1.396794 3.022 
1064 760 -9.766749 -1.397827 1.477 
1080 760 -9.690762 -1.302118 3.373 
1096 760 -9.402010 -1.117734 1.914 
1112 760 -9.710620 -1.169864 1.953 
1128 760 -10.778505 -1.518042 2.000 
1144 760 -9.550629 -0.423134 3.581 
1160 760 -7.739083 2.807560 1.610 
1176 760 -6.499216 6.039116 1.825 
1192 760 -5.350256 6.192543 1.337 
1208 760 -1.591598 1.427564 1.256 
1224 760 2.736643 -3.541271 1.032 
1240 760 4.401904 -3.099295 1.015 
1256 760 3.589421 -1.072305 1.003 
1272 760 2.782130 -2.466414 1.044 
8 744 1.332192 -5.730896 1.018 
24 744 -1.667689 -10.188890 1.002 
40 744 -1.868084 -8.067555 1.288 
56 744 0.008525 -2.113527 1.047 
72 744 1.719702 -2.571800 1.414 
88 744 -0.902148 0.028906 1.491 
104 744 0.381232 0.813655 1.449 
120 744 -0.254190 0.128788 1.502 
136 744 -0.889611 -0.556079 1.016 
152 744 -2.698556 1.763253 1.006 
168 744 -3.923669 3.161724 2.893 
184 744 -3.948831 3.225509 2.242 
200 744 -3.878729 3.253132 1.593 
216 744 -3.578511 3.426399 1.684 
232 744 -3.490147 3.374264 1.017 
248 744 -3.478473 3.162603 2.726 
264 744 -3.319938 2.799542 2.415 
280 744 -3.062544 2.333051 2.833 
296 744 -2.961943 2.015087 2.560 
312 744 -3.213196 1.970309 2.160 
328 744 -3.237097 1.874597 2.383 
344 744 -3.429236 1.715310 1.127 
360 744 -2.724715 1.901074 2.229 
376 744 -2.645911 2.226813 3.088 
392 744 -3.019218 1.900608 2.353 
408 744 -3.402906 1.222079 2.260 
424 744 -3.384849 1.017828 2.431 
440 744 -3.196528 0.950568 2.108 
456 744 -3.135039 1.065153 1.782 
472 744 -3.238031 1.327491 4.095 
488 744 -3.605502 2.107054 3.551 
504 744 -4.191492 2.726821 4.016 
520 744 -4.971835 2.719192 2.820 
536 744 -5.571343 1.981909 1.989 
552 744 -5.875291 1.370862 2.490 
568 744 -5.881038 1.178366 3.417 
584 744 -5.857405 1.331228 3.170 
600 744 -6.199484 1.304129 3.110 
616 744 -6.621834 1.020236 2.772 
632 744 -6.967006 0.753429 2.564 
648 744 -7.188862 0.509326 1.876 
664 744 -7.420620 0.473108 2.493 
680 744 -7.346334 0.251015 1.780 
696 744 -7.453362 0.312022 1.453 
712 744 -7.662622 0.412888 2.866 
728 744 -7.734421 0.512437 2.502 
744 744 -7.684603 0.242815 2.261 
760 744 -7.559678 0.034443 2.590 
776 744 -7.736299 -0.161238 3.598 
792 744 -7.840602 -0.178581 1.824 
808 744 -7.973823 -0.130432 2.193 
824 744 -8.132028 -0.128893 2.111 
840 744 -8.567033 -0.281865 1.799 
856 744 -8.914058 -0.588672 1.831 
872 744 -8.952503 -0.597460 1.671 
888 744 -9.133319 -0.585119 2.713 
904 744 -9.093310 -0.878653 2.001 
920 744 -8.940091 -0.932323 1.868 
936 744 -8.918430 -0.785789 2.787 
952 744 -9.126966 -0.873408 2.233 
968 744 -9.318549 -0.853049 1.473 
984 744 -9.289243 -1.110893 2.349 
1000 744 -9.337547 -1.261974 3.215 
1016 744 -9.377436 -1.341252 2.123 
1032 744 -9.171962 -1.542868 3.411 
1048 744 -9.386410 -1.400532 2.291 
1064 744 -9.662511 -1.502475 1.534 
1080 744 -9.443383 -1.423943 2.550 
1096 744 -8.726269 -1.314151 2.745 
1112 744 -8.953768 -1.401434 3.160 
1128 744 -9.782331 -1.524711 3.126 
1144 744 -9.026593 -0.552616 2.060 
1160 744 -7.991435 1.800891 1.320 
1176 744 -7.337314 4.031107 1.037 
1192 744 -5.977205 4.595276 1.231 
1208 744 -1.349035 -0.428012 1.057 
1224 744 4.193993 -2.939435 1.267 
1240 744 6.876007 -2.934713 1.007 
1256 744 6.209103 -1.883923 1.060 
1272 744 3.213031 -3.481948 1.067 
8 728 0.038554 2.013220 1.034 
24 728 0.344597 -0.204053 1.037 
40 728 -0.329443 -3.813358 1.036 
56 728 0.583253 -3.129723 1.295 
72 728 0.963939 -4.709579 1.121 
88 728 0.387665 0.059776 1.131 
104 728 0.597834 0.660816 1.381 
120 728 -0.618248 0.754900 1.165 
136 728 -1.834330 0.848985 1.117 
152 728 -2.957116 2.020186 1.582 
168 728 -3.812519 2.956749 2.472 
184 728 -4.079588 3.140915 2.067 
200 728 -3.913921 3.246519 1.598 
216 728 -3.791769 3.295902 1.880 
232 728 -3.445238 3.323383 1.105 
248 728 -3.388804 3.250156 2.153 
264 728 -3.263363 3.194383 2.870 
280 728 -3.063200 2.525684 3.550 
296 728 -2.961078 1.923657 2.284 
312 728 -3.242409 1.845376 4.305 
328 728 -3.408269 1.652195 1.997 
344 728 -3.326399 1.689798 2.124 
360 728 -2.692491 2.218045 2.647 
376 728 -2.745016 2.311764 4.009 
392 728 -2.899424 2.293491 2.403 
408 728 -3.486091 1.411031 2.461 
424 728 -3.686921 1.108606 2.638 
440 728 -3.676131 1.275630 1.980 
456 728 -3.728600 1.548698 1.860 
472 728 -3.884140 1.597017 1.979 
488 728 -4.112017 2.154030 3.732 
504 728 -4.173433 2.585941 2.066 
520 728 -4.975283 2.505592 2.665 
536 728 -5.101006 2.012655 3.138 
552 728 -5.207980 1.519866 2.961 
568 728 -5.559886 1.281021 2.171 
584 728 -5.721931 1.247692 2.251 
600 728 -6.212949 1.057239 1.516 
616 728 -6.649562 0.951440 4.093 
632 728 -6.923889 0.748901 2.056 
648 728 -7.197040 0.501725 1.337 
664 728 -7.412397 0.298694 2.781 
680 728 -7.517833 0.173929 4.299 
696 728 -7.612938 0.312924 3.582 
712 728 -7.511788 0.456927 4.382 
728 728 -7.469728 0.401035 2.794 
744 728 -7.462557 0.182147 2.446 
760 728 -7.368348 0.109829 3.701 
776 728 -7.700687 -0.155623 2.403 
792 728 -8.078772 -0.152752 1.861 
808 728 -8.224713 -0.032708 3.097 
824 728 -8.393439 -0.149486 2.666 
840 728 -8.617134 -0.316329 2.310 
856 728 -8.957809 -0.617875 1.520 
872 728 -9.007709 -0.506410 1.035 
888 728 -9.060852 -0.645434 1.957 
904 728 -9.211483 -0.821895 1.632 
920 728 -9.157305 -0.920320 2.213 
936 728 -8.964780 -0.784908 2.046 
952 728 -8.925544 -0.838063 1.581 
968 728 -9.024335 -0.847649 1.253 
984 728 -9.005404 -0.997210 1.483 
1000 728 -9.267857 -1.144609 2.963 
1016 728 -9.280421 -1.226935 2.945 
1032 728 -9.074667 -1.353758 2.375 
1048 728 -9.162518 -1.498257 3.746 
1064 728 -9.538691 -1.598764 1.793 
1080 728 -9.293220 -1.753423 1.568 
1096 728 -8.494564 -1.689526 4.396 
1112 728 -8.661892 -1.895722 6.803 
1128 728 -9.797637 -1.985947 3.453 
1144 728 -9.622552 -1.473058 3.473 
1160 728 -8.464499 0.004259 2.296 
1176 728 -7.770476 1.453918 1.815 
1192 728 -6.339030 -2.067743 1.067 
1208 728 -1.106472 -2.283588 1.697 
1224 728 4.663143 -3.643482 1.024 
1240 728 7.154543 -1.773463 1.363 
1256 728 7.246560 -2.259342 1.359 
1272 728 3.264907 -3.144241 1.317 
8 712 -0.002026 2.823636 1.052 
24 712 0.075429 1.129989 1.058 
40 712 0.358343 -2.390065 1.227 
56 712 1.157980 -4.145920 1.390 
72 712 1.632460 -3.092143 1.453 
88 712 0.814224 -0.269806 1.183 
104 712 0.161427 0.430715 1.031 
120 712 -1.001554 0.746631 1.088 
136 712 -2.628103 1.379335 1.723 
152 712 -3.523842 2.375432 2.069 
168 712 -3.800803 3.066223 2.871 
184 712 -3.990416 3.165727 3.878 
200 712 -3.927795 3.357062 2.524 
216 712 -3.736803 3.424856 2.205 
232 712 -3.443456 3.191288 1.512 
248 712 -3.400172 3.329689 1.353 
264 712 -3.361650 3.410789 2.737 
280 712 -3.101000 2.856589 2.699 
296 712 -3.091943 1.833428 1.494 
312 712 -3.504957 1.581142 8.306 
328 712 -3.595538 1.581963 2.404 
344 712 -3.447717 1.757484 2.995 
360 712 -3.038218 2.060724 2.736 
376 712 -2.844122 2.396716 2.041 
392 712 -3.339152 2.320304 2.322 
408 712 -4.134711 1.606974 4.573 
424 712 -4.321116 1.253432 2.672 
440 712 -4.546389 1.533718 2.687 
456 712 -4.785400 1.922960 3.749 
472 712 -4.984377 2.007055 3.921 
488 712 -4.882525 2.095325 3.931 
504 712 -4.862221 2.408362 6.132 
520 712 -4.978731 2.291991 4.288 
536 712 -5.011562 1.715564 3.552 
552 712 -5.078252 1.381832 2.197 
568 712 -5.238734 1.383675 1.708 
584 712 -5.908879 0.968735 2.557 
600 712 -6.289255 0.703656 1.289 
616 712 -6.624172 0.697997 1.958 
632 712 -6.848873 0.360308 3.128 
648 712 -7.130114 0.345002 3.486 
664 712 -7.460478 0.445640 2.811 
680 712 -7.630893 0.097101 5.058 
696 712 -7.672939 0.135950 4.240 
712 712 -7.555790 0.424706 1.939 
728 712 -7.532645 0.375104 2.235 
744 712 -7.573135 -0.008422 2.137 
760 712 -7.521513 0.028580 2.421 
776 712 -7.681296 -0.134206 2.850 
792 712 -8.121456 -0.052931 4.041 
808 712 -8.475603 0.065016 2.185 
824 712 -8.538308 -0.149061 2.535 
840 712 -8.589204 -0.307725 2.441 
856 712 -8.801561 -0.462602 2.210 
872 712 -8.993650 -0.467552 1.665 
888 712 -8.716750 -0.730731 2.343 
904 712 -8.787381 -0.827232 2.512 
920 712 -8.966741 -0.605761 4.401 
936 712 -8.913375 -0.620905 4.315 
952 712 -8.832364 -0.665451 1.254 
968 712 -8.655030 -0.783777 1.594 
984 712 -8.883058 -0.829414 2.585 
1000 712 -8.990502 -0.858521 2.530 
1016 712 -9.253571 -1.050370 2.150 
1032 712 -9.101319 -1.286596 1.749 
1048 712 -9.297245 -1.418883 1.927 
1064 712 -9.530640 -1.672672 2.991 
1080 712 -9.211349 -1.996257 2.253 
1096 712 -8.569430 -2.004129 4.158 
1112 712 -8.648116 -2.335805 3.424 
1128 712 -9.164988 -2.330408 2.442 
1144 712 -9.381685 -1.809059 1.920 
1160 712 -8.879558 -0.766290 1.548 
1176 712 -8.527754 -0.076967 20.000 
1192 712 -6.715389 -2.122512 1.336 
1208 712 -1.186341 -2.407421 1.189 
1224 712 3.887120 -3.111836 1.014 
1240 712 7.433079 -0.612213 1.086 
1256 712 6.587000 -1.823048 1.024 
1272 712 3.316783 -2.806534 1.006 
8 696 -0.042605 3.634052 1.039 
24 696 0.367098 -0.698056 1.026 
40 696 0.807551 -1.192747 1.510 
56 696 1.515455 -1.241077 1.355 
72 696 1.527829 -0.804684 1.433 
88 696 1.037570 -0.415791 1.417 
104 696 -0.153650 0.557072 1.271 
120 696 -2.238324 1.402683 1.185 
136 696 -3.669632 1.833520 1.912 
152 696 -4.055400 2.745689 2.052 
168 696 -3.783867 3.132660 1.515 
184 696 -4.005288 3.757702 1.588 
200 696 -3.837111 3.856777 2.881 
216 696 -3.507037 3.534376 2.246 
232 696 -3.520908 2.817418 1.368 
248 696 -3.538196 3.194903 1.322 
264 696 -3.649269 3.533199 2.149 
280 696 -3.465116 2.961258 2.050 
296 696 -3.300451 2.155679 2.195 
312 696 -3.539531 1.570309 3.218 
328 696 -3.661831 1.497765 3.804 
344 696 -3.448416 1.360609 2.666 
360 696 -3.195793 1.656563 2.811 
376 696 -3.237662 2.283105 1.723 
392 696 -3.585285 2.539454 2.147 
408 696 -4.499896 2.001437 1.751 
424 696 -4.837707 1.769386 1.447 
440 696 -5.107803 2.123800 2.795 
456 696 -5.479312 2.501945 2.151 
472 696 -5.638838 2.314371 2.919 
488 696 -5.387440 2.133443 4.915 
504 696 -5.350516 2.424292 8.681 
520 696 -5.235567 2.280390 5.981 
536 696 -4.925916 1.655769 1.812 
552 696 -4.981367 1.089180 1.831 
568 696 -5.319849 0.779682 2.256 
584 696 -5.831290 0.410701 1.669 
600 696 -6.363838 0.292763 2.264 
616 696 -6.516975 0.382593 2.234 
632 696 -6.567444 -0.091321 6.747 
648 696 -6.880673 -0.005476 2.387 
664 696 -7.372533 0.252631 3.509 
680 696 -7.700920 -0.024120 4.448 
696 696 -7.859717 -0.018795 3.105 
712 696 -7.796101 0.396688 2.411 
728 696 -7.740109 0.259481 4.142 
744 696 -7.621720 0.152301 2.298 
760 696 -7.533363 0.154926 3.510 
776 696 -7.636135 0.086904 3.905 
792 696 -7.830445 0.132441 3.135 
808 696 -8.189842 0.007972 3.617 
824 696 -8.488678 -0.237256 2.534 
840 696 -8.415332 -0.307767 3.250 
856 696 -8.584719 -0.193831 3.529 
872 696 -8.703478 -0.607792 3.567 
888 696 -8.695784 -1.373929 1.465 
904 696 -8.764937 -1.474851 1.431 
920 696 -8.876274 -0.856590 4.914 
936 696 -9.033134 -0.562955 3.764 
952 696 -9.019548 -0.680859 3.636 
968 696 -8.881107 -0.640605 3.368 
984 696 -8.885931 -0.767227 4.731 
1000 696 -9.222897 -0.924289 1.847 
1016 696 -9.248724 -1.181667 2.695 
1032 696 -9.150544 -1.361580 2.568 
1048 696 -9.327353 -1.373660 2.238 
1064 696 -9.613601 -1.448224 2.110 
1080 696 -9.501908 -1.674882 2.891 
1096 696 -9.152329 -1.875905 2.237 
1112 696 -8.863472 -2.309503 2.233 
1128 696 -8.955737 -2.522898 2.031 
1144 696 -9.061835 -2.073526 2.795 
1160 696 -8.797248 -0.850559 1.732 
1176 696 -9.344506 -0.707501 1.595 
1192 696 -7.692321 -1.419531 1.708 
1208 696 -1.266211 -2.531253 1.011 
1224 696 4.065862 -0.668341 1.233 
1240 696 6.215418 -0.207994 1.206 
1256 696 4.820574 -0.157591 1.126 
1272 696 3.368658 -2.468828 1.143 
8 680 0.052241 3.299768 1.099 
24 680 0.173790 0.159919 1.079 
40 680 1.256758 0.004570 1.166 
56 680 1.872930 1.663766 1.075 
72 680 1.423197 1.482775 1.024 
88 680 -0.052969 0.250847 1.585 
104 680 -1.200100 1.146316 1.333 
120 680 -2.615431 2.357938 1.490 
136 680 -3.802645 2.881858 2.073 
152 680 -4.097858 3.121465 1.281 
168 680 -4.021481 3.292659 2.281 
184 680 -4.077850 4.335037 1.288 
200 680 -3.771700 4.293933 3.300 
216 680 -3.389586 3.858610 3.625 
232 680 -3.053954 3.119028 1.527 
248 680 -2.748719 3.322886 1.092 
264 680 -3.314268 3.500912 2.442 
280 680 -3.266355 3.161434 3.520 
296 680 -3.230233 2.591907 2.362 
312 680 -3.563171 1.995296 2.414 
328 680 -3.728124 1.413566 2.377 
344 680 -3.371950 1.100626 1.931 
360 680 -3.219978 1.400074 2.242 
376 680 -3.410239 2.613574 1.526 
392 680 -3.803061 3.058838 2.391 
408 680 -4.449428 2.728261 2.012 
424 680 -4.879579 2.447487 1.460 
440 680 -5.373713 2.680426 3.137 
456 680 -5.802134 3.343038 5.296 
472 680 -5.964231 2.923802 4.118 
488 680 -5.763537 2.222142 3.045 
504 680 -5.586883 2.404320 2.813 
520 680 -5.320565 2.453532 3.155 
536 680 -5.059488 1.644247 3.177 
552 680 -5.071028 0.932245 3.395 
568 680 -5.347146 0.340791 3.156 
584 680 -5.486747 -0.054377 1.071 
600 680 -6.025341 0.029281 1.229 
616 680 -6.475388 0.234463 2.645 
632 680 -6.708446 -0.105747 3.844 
648 680 -6.723679 -0.188715 1.807 
664 680 -7.186677 0.018545 2.167 
680 680 -7.743607 -0.084773 3.280 
696 680 -8.093164 0.177392 3.561 
712 680 -7.850740 0.569595 2.680 
728 680 -7.634136 0.553950 1.822 
744 680 -7.644860 0.383787 2.681 
760 680 -7.691428 0.402005 4.367 
776 680 -7.647127 0.329867 4.355 
792 680 -7.677478 0.249262 3.503 
808 680 -7.832162 0.047097 2.713 
824 680 -8.027876 -0.197819 2.315 
840 680 -8.060018 -0.239060 3.301 
856 680 -8.451615 -0.060213 4.022 
872 680 -8.580888 -0.504925 6.428 
888 680 -8.752263 -1.897812 2.680 
904 680 -8.803129 -2.031954 2.384 
920 680 -8.869664 -1.087551 3.474 
936 680 -9.198620 -0.816187 3.089 
952 680 -9.254398 -0.835777 2.899 
968 680 -9.058613 -0.873448 3.263 
984 680 -8.981055 -0.920084 5.049 
1000 680 -9.105192 -1.037953 3.695 
1016 680 -9.336396 -1.222058 2.637 
1032 680 -9.218352 -1.495878 3.679 
1048 680 -9.124616 -1.513815 3.788 
1064 680 -9.280143 -1.527382 5.130 
1080 680 -9.167556 -1.632783 5.189 
1096 680 -8.856937 -1.980309 2.784 
1112 680 -8.785936 -2.338356 3.199 
1128 680 -9.138504 -2.165036 2.241 
1144 680 -9.000624 -1.730018 2.119 
1160 680 -9.227215 -1.130586 2.058 
1176 680 -9.197280 -1.300690 1.007 
1192 680 -9.167345 -1.470793 3.314 
1208 680 -0.304228 -1.594765 1.006 
1224 680 4.427838 -0.094421 2.054 
1240 680 4.997758 0.196226 1.070 
1256 680 4.052326 1.029071 1.051 
1272 680 3.420534 -2.131121 1.052 
8 664 0.407089 2.339891 1.169 
24 664 -0.019517 1.017894 1.182 
40 664 0.320333 3.788088 1.454 
56 664 0.976154 6.618117 1.390 
72 664 0.621959 3.668290 1.022 
88 664 -0.099519 0.655438 1.399 
104 664 -1.863332 2.620642 1.468 
120 664 -2.953088 3.665332 2.159 
136 664 -4.071234 3.692226 1.602 
152 664 -4.461166 3.541939 1.560 
168 664 -4.266427 3.513069 1.470 
184 664 -4.161741 4.334321 1.540 
200 664 -3.580047 4.158710 1.751 
216 664 -3.372027 3.914420 1.932 
232 664 -2.643754 3.548931 2.662 
248 664 -1.959242 3.450869 1.569 
264 664 -2.004779 3.591314 1.255 
280 664 -2.604180 3.312745 2.082 
296 664 -3.116177 2.809317 3.213 
312 664 -3.233672 2.450914 2.741 
328 664 -3.266908 1.952980 1.730 
344 664 -3.151042 0.982467 1.753 
360 664 -3.180283 1.143060 2.317 
376 664 -3.628883 2.402443 2.817 
392 664 -3.992608 2.909837 1.935 
408 664 -3.989588 3.023193 2.008 
424 664 -4.467084 2.975661 1.204 
440 664 -5.042119 3.260021 2.626 
456 664 -5.651123 3.469697 3.463 
472 664 -6.044007 2.983779 3.316 
488 664 -5.996393 1.846226 3.930 
504 664 -5.950530 2.125260 2.413 
520 664 -5.710754 2.090762 3.010 
536 664 -5.557077 1.651700 4.040 
552 664 -5.614554 0.800328 4.564 
568 664 -5.802712 0.139304 3.228 
584 664 -5.829629 -0.224003 2.429 
600 664 -6.007073 -0.009436 1.859 
616 664 -6.605356 0.261735 2.326 
632 664 -6.588334 0.338300 1.605 
648 664 -6.875390 -0.012568 1.898 
664 664 -7.306950 0.156701 1.602 
680 664 -7.470030 -0.123963 1.736 
696 664 -7.836531 0.060653 2.026 
712 664 -7.646620 0.415122 2.911 
728 664 -7.532878 0.671871 2.181 
744 664 -7.616276 0.668368 2.022 
760 664 -7.658075 0.556960 2.828 
776 664 -7.813119 0.403911 2.497 
792 664 -7.725861 0.296952 3.331 
808 664 -7.750863 0.144713 4.472 
824 664 -7.819282 -0.122784 2.701 
840 664 -8.000756 -0.202811 3.185 
856 664 -8.318511 0.073404 3.750 
872 664 -8.332179 -0.372732 4.099 
888 664 -8.286929 -1.450222 3.881 
904 664 -8.596519 -1.488562 2.593 
920 664 -8.870191 -0.885427 5.205 
936 664 -9.098411 -0.895336 2.352 
952 664 -9.004813 -1.124533 2.460 
968 664 -8.897675 -1.142277 4.038 
984 664 -8.842113 -1.114059 6.227 
1000 664 -8.939876 -1.225389 2.530 
1016 664 -9.298439 -1.313228 1.098 
1032 664 -9.129444 -1.592268 1.186 
1048 664 -8.612186 -1.952267 2.657 
1064 664 -8.762049 -1.866775 3.344 
1080 664 -8.770126 -1.589760 1.839 
1096 664 -8.613525 -2.134831 2.689 
1112 664 -8.751537 -2.224258 2.216 
1128 664 -9.044569 -2.010427 2.490 
1144 664 -8.928878 -1.623033 4.411 
1160 664 -9.411084 -1.288473 2.619 
1176 664 -9.889739 -1.476492 1.053 
1192 664 -10.368395 -1.664511 4.919 
1208 664 0.651985 -1.425877 1.049 
1224 664 2.947946 -0.888750 1.347 
1240 664 3.362372 -0.501081 1.346 
1256 664 3.621304 -0.016390 1.055 
1272 664 3.472410 -1.793414 1.031 
8 648 0.166594 0.471345 1.083 
24 648 -0.265231 0.038045 1.050 
40 648 -0.651648 3.581861 1.133 
56 648 0.245551 4.269804 1.150 
72 648 1.142750 4.957746 1.033 
88 648 -0.409493 1.770429 1.122 
104 648 -2.483323 3.674285 1.641 
120 648 -3.543950 3.852047 2.327 
136 648 -4.604577 4.029808 2.059 
152 648 -4.468180 3.536476 1.662 
168 648 -4.413166 3.065353 1.263 
184 648 -3.135090 2.698539 2.343 
200 648 -3.388394 4.023488 2.281 
216 648 -3.234396 3.530148 1.987 
232 648 -2.381566 3.501087 3.104 
248 648 -1.860801 3.557391 2.971 
264 648 -1.865024 3.826134 1.585 
280 648 -2.374191 3.363432 1.660 
296 648 -2.634689 2.809312 1.513 
312 648 -3.028854 2.676281 2.607 
328 648 -3.122314 2.064739 3.653 
344 648 -2.703716 0.794883 1.130 
360 648 -2.964212 1.031830 1.693 
376 648 -3.512458 2.145754 1.387 
392 648 -3.757787 2.389578 1.581 
408 648 -3.555671 2.562268 1.660 
424 648 -4.070779 2.561230 2.260 
440 648 -4.775719 2.861403 1.993 
456 648 -5.264436 3.085350 5.047 
472 648 -5.814858 2.131042 5.213 
488 648 -5.966575 1.283596 5.129 
504 648 -6.016234 1.424568 2.325 
520 648 -6.066828 1.710940 1.881 
536 648 -6.147899 1.638656 2.333 
552 648 -6.452881 0.652910 2.188 
568 648 -6.492041 0.130543 2.210 
584 648 -6.354697 -0.111378 2.238 
600 648 -5.985694 0.206133 2.056 
616 648 -6.486517 0.254006 3.528 
632 648 -6.778880 0.240900 3.926 
648 648 -6.947148 0.229375 2.063 
664 648 -6.947627 0.157802 2.346 
680 648 -7.196452 -0.163152 3.980 
696 648 -7.244563 0.105301 1.538 
712 648 -7.236593 0.504087 3.261 
728 648 -7.278565 0.593857 2.007 
744 648 -7.344873 0.544824 2.374 
760 648 -7.367954 0.583505 3.214 
776 648 -7.661165 0.440978 5.346 
792 648 -7.726362 0.322895 3.258 
808 648 -7.705285 0.361967 2.423 
824 648 -7.663092 0.122835 3.292 
840 648 -7.868126 -0.111892 3.703 
856 648 -8.145960 -0.147651 2.752 
872 648 -8.076611 -0.405516 2.042 
888 648 -8.061146 -0.859096 2.584 
904 648 -8.389909 -0.945171 1.507 
920 648 -8.609693 -0.731665 1.146 
936 648 -8.870621 -0.830072 2.124 
952 648 -8.895966 -1.185481 3.266 
968 648 -8.826510 -1.231748 3.077 
984 648 -9.012707 -1.209399 2.502 
1000 648 -9.126803 -1.371703 1.901 
1016 648 -9.054592 -1.427704 1.430 
1032 648 -8.909177 -1.539945 1.282 
1048 648 -8.581585 -1.987525 2.568 
1064 648 -8.641664 -1.677701 5.386 
1080 648 -8.616988 -1.522235 1.021 
1096 648 -8.624227 -1.833691 1.127 
1112 648 -8.855133 -2.053346 2.108 
1128 648 -9.190976 -1.877809 4.768 
1144 648 -9.043743 -1.761341 6.128 
1160 648 -9.360719 -1.736732 5.062 
1176 648 -10.391781 -1.665772 1.760 
1192 648 -9.665226 -1.805202 1.120 
1208 648 -1.617409 -1.489602 1.456 
1224 648 1.468053 -1.683079 1.035 
1240 648 2.329954 -1.558476 1.119 
1256 648 3.191856 -1.433872 1.415 
1272 648 3.524285 -1.455708 1.496 
8 632 0.115176 0.132015 1.007 
24 632 -0.344430 -0.061933 1.112 
40 632 0.278135 3.476456 1.109 
56 632 1.101352 4.074408 1.208 
72 632 1.623338 4.159706 1.285 
88 632 -1.100603 5.096120 1.015 
104 632 -2.889924 3.730163 1.001 
120 632 -3.514353 3.745623 2.103 
136 632 -3.902504 3.893631 2.325 
152 632 -4.475193 3.531014 1.370 
168 632 -3.887998 3.025068 1.027 
184 632 -3.490259 3.115526 3.220 
200 632 -2.865322 3.434889 1.923 
216 632 -2.809377 3.548968 1.994 
232 632 -2.153865 3.186091 2.389 
248 632 -1.762360 3.663912 2.074 
264 632 -2.647235 3.386956 1.179 
280 632 -3.311117 2.846935 1.049 
296 632 -3.203373 2.728641 1.151 
312 632 -3.095629 2.610347 1.552 
328 632 -3.041230 1.972650 2.431 
344 632 -2.467327 0.683063 1.671 
360 632 -2.701363 0.701419 1.638 
376 632 -3.211867 1.968145 1.890 
392 632 -3.688854 2.201479 1.725 
408 632 -3.604232 1.991098 1.819 
424 632 -3.852796 1.962856 4.128 
440 632 -4.471015 2.388554 2.382 
456 632 -4.937798 2.711581 1.407 
472 632 -5.404546 1.965849 1.908 
488 632 -5.613653 1.162443 4.529 
504 632 -5.736864 1.239764 3.618 
520 632 -5.932695 1.447001 1.181 
536 632 -6.143434 1.502559 2.049 
552 632 -6.991908 0.640588 2.349 
568 632 -6.892990 0.365818 1.729 
584 632 -6.555781 0.342810 2.531 
600 632 -6.406904 0.492862 1.749 
616 632 -6.687887 0.504701 2.127 
632 632 -6.829770 0.400538 2.473 
648 632 -6.759782 0.258985 3.159 
664 632 -6.650773 0.022848 3.356 
680 632 -6.735430 0.108664 2.968 
696 632 -6.718962 0.512830 5.845 
712 632 -6.509835 1.331677 1.472 
728 632 -6.705220 0.997517 1.065 
744 632 -6.980149 0.544920 1.449 
760 632 -7.141730 0.365368 2.232 
776 632 -7.101418 0.272715 3.729 
792 632 -7.459765 0.409254 1.137 
808 632 -7.480943 0.699406 1.004 
824 632 -7.451247 0.487756 2.323 
840 632 -7.659806 -0.118051 3.446 
856 632 -7.913143 -0.135477 1.359 
872 632 -7.921946 -0.282375 1.267 
888 632 -8.054963 -0.591759 1.564 
904 632 -8.497876 -0.687701 3.493 
920 632 -8.775569 -0.489354 1.528 
936 632 -8.789395 -0.641173 3.128 
952 632 -8.626662 -1.104044 3.940 
968 632 -8.653334 -1.232480 2.475 
984 632 -8.960378 -1.197629 1.858 
1000 632 -8.979739 -1.263139 1.409 
1016 632 -8.834324 -1.375381 1.100 
1032 632 -8.688910 -1.487622 1.136 
1048 632 -8.543495 -1.599864 2.645 
1064 632 -8.521278 -1.488628 3.815 
1080 632 -8.469771 -1.499357 1.993 