TITLE = "B00143"
VARIABLES = "x", "y", "u", "v", "sn"
ZONE T="Frame 0", I=80, J=50
8 792 0.000000 -0.000000 1.021 
24 792 8.888996 0.883851 1.019 
40 792 7.041243 2.392225 1.266 
56 792 5.193490 3.900600 1.034 
72 792 -1.585331 -2.794711 1.044 
88 792 -10.122817 -8.703156 1.036 
104 792 -15.527625 -10.714974 1.381 
120 792 -15.448737 -6.593059 1.047 
136 792 -8.536774 -3.191545 1.024 
152 792 -2.447887 -1.991160 1.128 
168 792 -0.720289 -0.735370 1.172 
184 792 -3.485424 -0.019692 1.488 
200 792 -4.007637 0.017440 2.558 
216 792 -4.529850 0.054572 2.431 
232 792 -4.456395 0.273447 1.366 
248 792 -5.041492 0.039240 1.189 
264 792 -5.620956 -0.129258 1.293 
280 792 -5.478161 0.224179 2.281 
296 792 -5.396623 0.114597 2.411 
312 792 -5.970762 0.003461 2.256 
328 792 -6.439831 -0.029718 1.594 
344 792 -6.539993 -0.085790 2.303 
360 792 -6.434653 -0.446377 2.031 
376 792 -6.240297 -0.821539 3.136 
392 792 -6.019430 -0.780876 2.253 
408 792 -6.242408 -0.686619 1.944 
424 792 -6.458781 -0.806403 2.185 
440 792 -6.285431 -0.923080 2.907 
456 792 -6.125741 -0.810771 3.175 
472 792 -6.131320 -0.626745 2.081 
488 792 -6.283611 -0.637453 1.886 
504 792 -6.448499 -1.198768 1.597 
520 792 -6.367445 -1.534997 2.658 
536 792 -6.246271 -1.929699 2.731 
552 792 -6.072273 -2.094938 1.912 
568 792 -5.538001 -1.742073 2.715 
584 792 -5.293455 -1.630142 1.721 
600 792 -5.326602 -1.672277 2.484 
616 792 -5.151071 -1.874682 2.357 
632 792 -4.956094 -2.083915 4.599 
648 792 -4.976797 -2.021517 2.443 
664 792 -5.202367 -1.568350 1.138 
680 792 -5.023981 -1.484753 1.604 
696 792 -4.814306 -1.686893 1.763 
712 792 -4.990055 -1.472278 1.189 
728 792 -5.087214 -1.181412 1.036 
744 792 -5.074603 -0.784420 3.282 
760 792 -4.825056 -0.484943 4.581 
776 792 -4.580126 -0.374224 4.004 
792 792 -4.579632 -0.469178 2.513 
808 792 -4.464592 -1.054502 3.916 
824 792 -4.494126 -1.317403 5.154 
840 792 -4.877387 -0.744253 2.922 
856 792 -4.674249 -0.148926 1.434 
872 792 -4.476567 0.124529 1.627 
888 792 -4.883639 -0.193441 1.897 
904 792 -5.097823 -0.276796 2.109 
920 792 -4.818366 0.001336 2.343 
936 792 -4.454726 -0.062852 2.647 
952 792 -4.428006 -0.829464 1.907 
968 792 -4.553419 -1.753215 3.707 
984 792 -4.917278 -2.086563 3.003 
1000 792 -5.192221 -1.223150 3.058 
1016 792 -5.548604 -0.541602 3.606 
1032 792 -5.858207 0.032640 2.544 
1048 792 -6.092239 0.214160 1.115 
1064 792 -6.306579 -0.386223 1.589 
1080 792 -6.159707 -1.128243 2.149 
1096 792 -6.496792 -3.402210 2.616 
1112 792 -6.833877 -5.676178 1.764 
1128 792 -5.188273 -9.225950 1.172 
1144 792 5.588054 -11.111222 1.049 
1160 792 6.052900 -15.175719 1.189 
1176 792 4.990666 -18.513665 1.332 
1192 792 5.008522 -19.089806 1.013 
1208 792 4.278435 -19.057039 1.045 
1224 792 5.407903 -16.789319 1.112 
1240 792 9.709559 -12.343846 1.161 
1256 792 12.912783 -5.287313 1.059 
1272 792 0.000000 -0.000000 1.079 
8 776 0.878584 -3.114398 1.067 
24 776 8.518260 -1.731954 1.058 
40 776 8.170374 0.335251 1.275 
56 776 7.822489 2.402456 1.039 
72 776 1.335359 -1.898916 1.024 
88 776 -8.767904 -9.151932 1.037 
104 776 -15.263366 -9.620125 1.401 
120 776 -14.207013 -6.539263 1.155 
136 776 -7.259479 -2.692229 1.017 
152 776 -1.046530 -0.999455 1.102 
168 776 -1.757522 0.102872 1.154 
184 776 -4.297413 0.715638 1.407 
200 776 -4.658385 0.119582 2.615 
216 776 -4.711552 0.090086 2.410 
232 776 -4.637083 0.231093 1.391 
248 776 -5.162435 -0.034045 1.205 
264 776 -5.711960 -0.283481 1.320 
280 776 -5.546106 0.100109 2.268 
296 776 -5.433343 0.043107 2.273 
312 776 -5.926002 -0.058134 2.117 
328 776 -6.349470 -0.131040 1.616 
344 776 -6.411212 -0.156701 2.402 
360 776 -6.337628 -0.468924 2.137 
376 776 -6.164695 -0.823206 3.178 
392 776 -5.985033 -0.766105 2.239 
408 776 -6.192777 -0.675927 2.160 
424 776 -6.393538 -0.803842 2.307 
440 776 -6.258144 -0.957606 2.938 
456 776 -6.131969 -0.956181 3.110 
472 776 -6.132516 -0.795703 2.051 
488 776 -6.283440 -0.983272 1.973 
504 776 -6.389636 -1.266948 1.687 
520 776 -6.303604 -1.548430 2.859 
536 776 -6.178949 -1.866293 2.669 
552 776 -6.046047 -2.010387 1.856 
568 776 -5.552579 -1.646781 2.876 
584 776 -5.287736 -1.580249 1.810 
600 776 -5.280969 -1.642577 2.567 
616 776 -5.141774 -1.832586 2.321 
632 776 -5.027518 -1.967880 4.901 
648 776 -5.011958 -1.926475 2.425 
664 776 -5.199884 -1.536675 1.194 
680 776 -4.941790 -1.516799 1.727 
696 776 -4.702392 -1.703947 1.826 
712 776 -4.783614 -1.509683 1.313 
728 776 -4.807554 -1.095425 1.061 
744 776 -4.766730 -0.700600 3.311 
760 776 -4.599245 -0.420584 4.535 
776 776 -4.386233 -0.359197 3.756 
792 776 -4.419149 -0.433908 2.462 
808 776 -4.313872 -1.044742 4.126 
824 776 -4.346118 -1.247427 5.321 
840 776 -4.671370 -0.614095 3.049 
856 776 -4.485414 -0.072276 1.459 
872 776 -4.369185 0.054386 1.539 
888 776 -4.732651 -0.224501 1.858 
904 776 -4.888776 -0.252817 2.088 
920 776 -4.654210 0.007049 2.193 
936 776 -4.367581 -0.015696 2.640 
952 776 -4.266094 -0.653336 1.770 
968 776 -4.341595 -1.429472 3.567 
984 776 -4.718615 -1.769625 2.795 
1000 776 -4.975368 -0.996295 3.028 
1016 776 -5.366502 -0.359057 3.751 
1032 776 -5.738227 0.274516 2.705 
1048 776 -6.010984 0.575790 1.140 
1064 776 -6.103988 0.095816 1.542 
1080 776 -5.928887 -0.280222 2.121 
1096 776 -6.167586 -1.278609 2.614 
1112 776 -6.439615 -2.989622 1.717 
1128 776 -4.618058 -5.828318 1.150 
1144 776 2.389419 -8.277941 1.045 
1160 776 3.686689 -14.013420 1.271 
1176 776 3.437115 -19.819046 1.289 
1192 776 2.636152 -21.590803 1.596 
1208 776 1.087269 -21.223030 1.024 
1224 776 1.272016 -17.652892 1.168 
1240 776 6.421683 -12.552602 1.152 
1256 776 11.467359 -4.092140 1.706 
1272 776 0.000000 -0.000000 1.576 
8 760 -3.198042 7.230067 1.210 
24 760 5.010107 6.705672 1.098 
40 760 10.265791 11.067454 1.179 
56 760 5.258128 8.676234 1.010 
72 760 0.197607 0.754669 1.298 
88 760 -9.358330 -7.095209 1.251 
104 760 -14.999107 -8.525275 1.703 
120 760 -13.999952 -3.133332 1.276 
136 760 -9.464220 0.707672 1.201 
152 760 -5.584404 2.422575 1.171 
168 760 -3.928364 1.951185 1.250 
184 760 -4.038350 0.998032 1.208 
200 760 -4.444189 0.423436 1.094 
216 760 -4.941413 0.149266 1.838 
232 760 -5.048714 0.027110 1.245 
248 760 -5.592150 -0.270706 1.116 
264 760 -6.111418 -0.535332 1.570 
280 760 -5.891139 -0.181020 1.967 
296 760 -5.653293 -0.010539 1.789 
312 760 -5.793233 -0.194522 1.848 
328 760 -6.196434 -0.293121 1.361 
344 760 -6.121112 -0.472971 1.842 
360 760 -6.177144 -0.718573 3.431 
376 760 -6.003634 -0.838537 9.292 
392 760 -5.939333 -0.653217 2.136 
408 760 -6.078912 -0.676389 1.730 
424 760 -6.130436 -0.865382 2.471 
440 760 -6.172941 -1.097069 2.660 
456 760 -6.150587 -1.168199 3.406 
472 760 -6.230384 -1.212519 3.212 
488 760 -6.258137 -1.359938 2.185 
504 760 -6.233542 -1.334997 2.673 
520 760 -6.139310 -1.408689 2.394 
536 760 -6.037171 -1.797439 2.639 
552 760 -5.992113 -1.775788 2.878 
568 760 -5.541778 -1.531501 2.574 
584 760 -5.295866 -1.493826 1.833 
600 760 -5.236953 -1.604060 2.089 
616 760 -5.206778 -1.789713 3.070 
632 760 -5.064022 -1.864630 3.205 
648 760 -4.876922 -1.843808 2.566 
664 760 -4.980030 -1.846788 2.920 
680 760 -4.781399 -1.817556 2.606 
696 760 -4.382173 -2.026753 2.035 
712 760 -4.154372 -1.913437 2.760 
728 760 -4.105186 -1.093519 1.696 
744 760 -4.045720 -0.415640 4.028 
760 760 -3.874031 -0.182634 4.086 
776 760 -3.766056 -0.158819 3.416 
792 760 -4.007337 -0.270458 1.440 
808 760 -3.980596 -0.893397 7.801 
824 760 -3.949075 -1.013830 7.878 
840 760 -3.962627 -0.390551 6.306 
856 760 -4.014949 0.326915 1.269 
872 760 -4.137423 0.093274 1.937 
888 760 -4.242116 -0.227764 3.295 
904 760 -4.446721 -0.083026 2.529 
920 760 -4.285006 0.179932 2.821 
936 760 -4.134167 0.020983 1.972 
952 760 -4.150711 -0.075961 1.700 
968 760 -4.153847 -0.567759 1.754 
984 760 -4.263051 -1.551059 1.876 
1000 760 -4.115614 -0.784969 2.072 
1016 760 -5.072831 -0.228956 1.458 
1032 760 -4.943725 0.337990 2.290 
1048 760 -5.382203 0.436936 1.546 
1064 760 -5.473431 0.299293 1.950 
1080 760 -5.241248 0.019263 1.325 
1096 760 -5.108767 -0.320851 1.432 
1112 760 -6.105951 -1.745035 1.152 
1128 760 -4.304604 -3.185233 1.406 
1144 760 -0.921085 -4.526076 2.391 
1160 760 1.054872 -9.939444 1.241 
1176 760 1.203952 -14.797273 1.151 
1192 760 0.156217 -21.391630 1.070 
1208 760 -2.667469 -19.649308 1.015 
1224 760 -4.909521 -20.546791 1.325 
1240 760 -3.580378 -15.537620 1.195 
1256 760 -5.920237 -11.689191 1.063 
1272 760 -2.786926 -3.605806 1.130 
8 744 -5.910671 9.630482 1.249 
24 744 0.266151 8.592075 1.225 
40 744 1.246707 12.527606 1.168 
56 744 2.693767 14.950012 1.118 
72 744 -0.850193 4.249362 1.186 
88 744 -8.454041 -5.573869 1.129 
104 744 -13.284690 -5.693887 1.177 
120 744 -12.948704 -0.981204 1.267 
136 744 -8.286764 1.362565 1.202 
152 744 -5.020121 2.130918 1.921 
168 744 -4.452463 1.405811 2.196 
184 744 -4.996981 0.787801 1.746 
200 744 -4.956943 0.386888 1.178 
216 744 -5.406225 0.124435 1.101 
232 744 -5.745738 0.293758 1.366 
248 744 -6.174744 -0.269866 1.229 
264 744 -6.184765 -0.419969 2.366 
280 744 -6.224556 -0.527598 1.762 
296 744 -5.873243 -0.064185 1.059 
312 744 -5.983969 -0.244065 1.877 
328 744 -5.872742 -0.261916 2.154 
344 744 -5.905244 -0.389509 3.789 
360 744 -5.900443 -0.651027 4.018 
376 744 -5.921198 -0.868643 6.037 
392 744 -5.886446 -0.797472 3.460 
408 744 -5.905108 -0.804791 2.581 
424 744 -5.869222 -0.909793 1.021 
440 744 -5.995877 -1.168161 1.021 
456 744 -6.098504 -1.321605 1.864 
472 744 -6.139054 -1.429456 3.134 
488 744 -6.127927 -1.486214 3.638 
504 744 -6.033250 -1.465237 3.424 
520 744 -5.894693 -1.495094 2.369 
536 744 -5.885614 -1.758236 2.390 
552 744 -5.848760 -1.587762 3.186 
568 744 -5.658801 -1.349674 2.038 
584 744 -5.373981 -1.359036 2.172 
600 744 -5.040973 -1.696446 2.146 
616 744 -5.200412 -1.779229 2.732 
632 744 -5.112818 -1.756912 3.815 
648 744 -4.835496 -1.752607 2.118 
664 744 -4.696054 -1.825141 2.180 
680 744 -4.308062 -1.885181 1.749 
696 744 -4.020146 -2.053456 1.626 
712 744 -3.567804 -1.969374 2.903 
728 744 -3.288740 -0.590373 1.482 
744 744 -3.245552 0.148157 1.967 
760 744 -3.220915 0.085953 4.155 
776 744 -3.331304 -0.120913 4.419 
792 744 -3.495669 -0.315311 2.244 
808 744 -3.541454 -0.690793 4.903 
824 744 -3.505170 -0.598719 5.920 
840 744 -3.171003 0.304703 4.060 
856 744 -3.440971 0.904532 2.264 
872 744 -3.681433 0.086164 1.087 
888 744 -3.633922 0.073317 1.147 
904 744 -3.567686 0.291578 1.988 
920 744 -3.509934 0.358226 1.532 
936 744 -3.540588 0.468844 1.478 
952 744 -3.388765 0.757000 2.770 
968 744 -3.570137 -0.112369 2.017 
984 744 -4.054908 -1.776010 2.603 
1000 744 -4.160091 -1.454135 1.934 
1016 744 -4.403498 -0.995118 1.329 
1032 744 -4.589660 -0.234474 2.287 
1048 744 -4.753422 0.298083 1.818 
1064 744 -4.989786 0.176135 2.284 
1080 744 -4.842063 -0.194230 1.441 
1096 744 -5.021272 -0.413400 2.214 
1112 744 -5.598360 -0.707459 2.193 
1128 744 -4.082389 -1.448314 2.473 
1144 744 -1.814353 -2.835244 3.215 
1160 744 -0.380974 -5.101691 1.367 
1176 744 0.268895 -8.886158 1.238 
1192 744 -2.752543 -18.333114 1.256 
1208 744 -6.422208 -18.075585 1.058 
1224 744 -7.276641 -17.691095 1.021 
1240 744 -9.856947 -16.943990 1.153 
1256 744 -9.197217 -14.394612 1.022 
1272 744 -5.962429 -7.524064 1.048 
8 728 -8.623300 12.030897 1.102 
24 728 -4.477805 10.478479 1.002 
40 728 -2.044525 14.443899 1.453 
56 728 0.612478 13.918547 1.288 
72 728 -2.717920 8.713042 1.007 
88 728 -9.994724 -1.081228 1.311 
104 728 -11.885647 -3.165648 1.184 
120 728 -9.107688 -2.179556 1.210 
136 728 -6.455388 1.197005 1.311 
152 728 -4.766563 1.668196 1.443 
168 728 -4.768116 1.177352 2.601 
184 728 -5.162807 0.696196 2.815 
200 728 -4.880793 0.351742 1.915 
216 728 -5.428841 0.174809 2.763 
232 728 -5.799485 0.219549 1.066 
248 728 -5.846666 0.024051 1.533 
264 728 -6.258112 -0.304606 3.769 
280 728 -6.386437 -0.366973 2.278 
296 728 -6.342141 0.030497 1.619 
312 728 -6.085148 -0.176302 1.642 
328 728 -5.883510 -0.177657 1.055 
344 728 -5.902760 -0.368968 1.655 
360 728 -5.808040 -0.577680 7.916 
376 728 -5.732277 -0.924036 2.868 
392 728 -5.760318 -0.922938 6.051 
408 728 -5.765176 -0.806161 1.026 
424 728 -5.774435 -0.885215 1.073 
440 728 -5.875109 -1.171123 1.007 
456 728 -5.906657 -1.194238 2.797 
472 728 -5.895080 -1.210742 1.857 
488 728 -5.945686 -1.318099 2.691 
504 728 -5.890678 -1.230231 2.578 
520 728 -5.757920 -1.172968 2.067 
536 728 -5.777366 -1.662053 2.673 
552 728 -5.828336 -1.642368 1.772 
568 728 -5.537800 -1.253803 2.031 
584 728 -4.996556 -1.336389 2.350 
600 728 -4.997632 -1.741975 1.850 
616 728 -5.168884 -1.671462 2.289 
632 728 -5.012567 -1.622059 2.445 
648 728 -4.772980 -1.653720 1.935 
664 728 -4.590728 -1.661250 2.303 
680 728 -4.182520 -1.727157 1.679 
696 728 -3.658119 -2.080159 3.919 
712 728 -3.315870 -1.861132 2.251 
728 728 -3.238874 -0.376685 3.147 
744 728 -3.054179 0.357228 1.401 
760 728 -3.066953 -0.157742 3.027 
776 728 -3.319273 -0.659284 2.242 
792 728 -3.442652 -0.464759 3.515 
808 728 -3.438834 -0.444364 1.744 
824 728 -3.000424 -0.146844 3.468 
840 728 -2.941751 1.023025 1.553 
856 728 -3.343762 1.403776 1.551 
872 728 -3.400967 0.614787 1.006 
888 728 -3.159596 0.465664 1.129 
904 728 -2.915184 0.857260 2.468 
920 728 -3.012152 0.931602 1.713 
936 728 -3.056097 1.036436 1.529 
952 728 -3.344648 0.593315 2.497 
968 728 -3.885096 -0.532599 2.278 
984 728 -3.846764 -2.000960 2.938 
1000 728 -4.151721 -1.962322 2.893 
1016 728 -4.303094 -1.168356 1.564 
1032 728 -4.464860 -0.574057 1.480 
1048 728 -4.228499 -0.418224 2.199 
1064 728 -4.173886 -0.496817 2.255 
1080 728 -3.836681 -0.340080 1.637 
1096 728 -4.228981 -0.754051 3.224 
1112 728 -4.732559 -0.531577 2.779 
1128 728 -3.605350 -0.935427 2.944 
1144 728 -2.095938 -1.940071 2.471 
1160 728 -0.708866 -3.215859 1.027 
1176 728 0.340369 -8.146288 1.152 
1192 728 -3.251082 -9.449102 1.069 
1208 728 -6.842532 -10.751915 1.193 
1224 728 -9.643761 -14.835400 1.219 
1240 728 -13.663994 -19.184973 1.114 
1256 728 -12.155686 -15.636627 1.477 
1272 728 -7.332303 -9.186431 1.534 
8 712 4.480921 13.454679 1.005 
24 712 6.355279 8.445603 1.256 
40 712 -2.835611 13.306690 1.414 
56 712 0.072959 10.301110 1.536 
72 712 -3.543685 6.038708 1.042 
88 712 -12.236544 3.194564 1.110 
104 712 -10.486603 -0.637408 1.113 
120 712 -6.614563 -0.784505 1.003 
136 712 -5.262340 0.911466 1.045 
152 712 -4.513006 1.205474 1.178 
168 712 -5.063339 1.296744 1.782 
184 712 -5.096647 1.089102 1.281 
200 712 -4.696308 0.648215 1.452 
216 712 -4.973879 0.336349 1.419 
232 712 -5.446691 0.321012 4.278 
248 712 -5.732792 0.190781 2.370 
264 712 -6.144183 -0.170762 2.218 
280 712 -6.437753 -0.379052 1.416 
296 712 -6.515781 -0.308684 1.165 
312 712 -6.129402 -0.188661 2.428 
328 712 -6.061587 -0.370872 4.364 
344 712 -6.130573 -0.528664 2.212 
360 712 -5.790781 -0.651193 2.352 
376 712 -5.639295 -0.789994 4.140 
392 712 -5.738858 -0.757486 10.615 
408 712 -5.747575 -0.766495 2.059 
424 712 -5.783216 -0.871445 1.550 
440 712 -5.749822 -1.158966 3.306 
456 712 -5.637903 -1.225944 3.201 
472 712 -5.595249 -1.059194 2.194 
488 712 -5.739508 -1.049187 3.144 
504 712 -5.775612 -1.053245 1.842 
520 712 -5.859037 -1.107907 1.567 
536 712 -6.055670 -1.479717 2.700 
552 712 -5.858310 -1.603228 1.737 
568 712 -5.329880 -1.290514 2.089 
584 712 -5.100233 -1.479359 2.347 
600 712 -5.142933 -1.816606 4.014 
616 712 -5.039681 -1.831764 3.437 
632 712 -5.148630 -1.720774 2.426 
648 712 -5.050984 -1.634333 2.756 
664 712 -4.693436 -1.577416 2.462 
680 712 -4.296434 -1.637880 2.792 
696 712 -3.750016 -2.054749 3.215 
712 712 -3.501869 -1.823962 1.574 
728 712 -3.274755 -0.535806 1.965 
744 712 -2.981026 0.101103 1.717 
760 712 -3.057997 -0.234903 1.616 
776 712 -3.140606 -0.671457 1.269 
792 712 -3.088781 -0.478886 1.233 
808 712 -3.016933 -0.395676 2.173 
824 712 -2.864425 0.056967 2.871 
840 712 -2.918252 1.128872 1.618 
856 712 -3.122716 1.313155 2.004 
872 712 -3.100675 1.102377 4.110 
888 712 -2.924668 1.137808 1.308 
904 712 -2.832260 1.047588 2.004 
920 712 -3.149460 0.782336 2.292 
936 712 -3.679405 0.907579 2.379 
952 712 -4.229817 -0.252140 1.615 
968 712 -4.387120 -1.372844 4.613 
984 712 -3.996775 -1.870916 2.008 
1000 712 -3.945436 -1.828254 1.680 
1016 712 -4.141042 -0.896184 2.698 
1032 712 -3.773023 -0.613057 2.519 
1048 712 -3.278374 -0.739894 2.796 
1064 712 -3.030718 -0.797937 2.859 
1080 712 -2.833866 -0.654786 2.841 
1096 712 -3.327348 -1.013115 1.586 
1112 712 -3.449403 -0.860123 2.025 
1128 712 -2.858397 -0.486973 1.328 
1144 712 -1.939473 -0.581622 1.586 
1160 712 -0.885598 -1.319777 1.033 
1176 712 -0.786006 -4.949659 1.262 
1192 712 -5.206521 -4.108443 1.375 
1208 712 -9.627036 -3.267228 1.061 
1224 712 -12.719777 -4.286628 1.137 
1240 712 -17.904432 -4.819282 1.151 
1256 712 -21.056285 -4.023291 1.107 
1272 712 -21.090350 -1.415208 1.052 
8 696 17.585143 14.878460 1.153 
24 696 17.188363 6.412728 1.209 
40 696 -0.784054 8.713890 1.226 
56 696 0.886164 3.729257 1.051 
72 696 -4.369451 3.364374 1.084 
88 696 -5.461368 1.649339 1.065 
104 696 -6.553285 -0.065697 1.029 
120 696 -3.941736 0.650546 1.008 
136 696 -3.895535 1.137272 1.087 
152 696 -4.533827 0.936487 1.048 
168 696 -5.169926 0.619274 1.746 
184 696 -5.252602 1.057511 1.193 
200 696 -4.703471 0.764538 1.429 
216 696 -4.872265 0.485732 1.544 
232 696 -5.553106 0.227883 1.343 
248 696 -5.913220 -0.061060 1.479 
264 696 -5.901182 -0.265478 1.849 
280 696 -6.097845 -0.510403 1.804 
296 696 -6.533712 -0.595292 2.837 
312 696 -6.212726 -0.404806 2.375 
328 696 -5.960574 -0.363350 2.261 
344 696 -5.890648 -0.460259 3.501 
360 696 -5.534063 -0.588856 1.936 
376 696 -5.451225 -0.539085 2.169 
392 696 -5.706409 -0.669910 10.269 
408 696 -5.768960 -0.703102 6.343 
424 696 -5.808230 -0.853388 2.305 
440 696 -5.749353 -1.176114 3.143 
456 696 -5.282590 -1.418085 2.365 
472 696 -5.123063 -1.334295 3.102 
488 696 -5.429198 -1.235852 2.173 
504 696 -5.596144 -1.211729 3.075 
520 696 -5.772090 -1.284144 3.791 
536 696 -5.880186 -1.489813 3.699 
552 696 -5.740000 -1.590908 3.103 
568 696 -5.544737 -1.259454 2.635 
584 696 -5.336545 -1.355560 1.737 
600 696 -4.937414 -2.061963 3.078 
616 696 -4.909811 -1.964274 2.645 
632 696 -5.210736 -1.882048 3.569 
648 696 -5.178921 -1.582179 1.632 
664 696 -4.890736 -1.545519 1.919 
680 696 -4.444272 -1.616160 2.214 
696 696 -4.148636 -1.529074 2.276 
712 696 -3.882854 -1.231573 1.718 
728 696 -3.337860 -0.809708 3.171 
744 696 -2.992477 -0.331652 1.447 
760 696 -2.962059 -0.539140 1.066 
776 696 -2.909409 -0.646996 1.336 
792 696 -2.710037 -0.473535 1.988 
808 696 -2.600629 -0.361021 1.088 
824 696 -2.559174 0.013123 2.238 
840 696 -2.937880 1.179693 1.580 
856 696 -2.829631 1.306267 2.573 
872 696 -2.765988 1.211758 3.798 
888 696 -2.795158 1.130749 3.090 
904 696 -2.901547 0.987549 3.335 
920 696 -3.286768 0.633071 1.537 
936 696 -3.522741 0.534784 2.107 
952 696 -4.337668 -0.494151 2.720 
968 696 -4.155321 -1.177421 3.116 
984 696 -3.905020 -1.326779 1.008 
1000 696 -3.740389 -1.143866 1.400 
1016 696 -3.410304 -0.907777 2.309 
1032 696 -3.146458 -0.598020 1.922 
1048 696 -2.343059 -0.915775 2.065 
1064 696 -2.471495 -0.844648 1.827 
1080 696 -2.054567 -0.759690 1.559 
1096 696 -2.645056 -1.201977 3.521 
1112 696 -2.548706 -1.052745 1.267 
1128 696 -1.506264 -0.405723 1.045 
1144 696 -1.836060 -0.455390 2.190 
1160 696 -1.566007 0.038488 1.434 
1176 696 -2.868430 -1.401894 1.344 
1192 696 -4.217963 -4.625862 1.111 
1208 696 -7.832400 -3.278978 1.254 
1224 696 -10.876900 -3.642267 1.299 
1240 696 -16.698272 -3.257635 1.049 
1256 696 -25.047609 -1.162688 1.014 
1272 696 -22.795005 -1.662232 1.043 
8 680 8.774130 -1.500443 1.009 
24 680 7.296063 -4.993980 1.029 
40 680 0.073364 1.298211 1.352 
56 680 0.134801 -5.571049 1.244 
72 680 -3.072211 -5.108869 1.157 
88 680 -4.032163 -2.623154 1.030 
104 680 -4.992115 -0.137439 1.096 
120 680 -4.424926 1.686208 1.157 
136 680 -4.571900 1.535046 1.095 
152 680 -5.000812 0.863905 1.274 
168 680 -5.540323 0.488668 1.501 
184 680 -5.099053 0.040366 1.010 
200 680 -4.545076 0.670361 1.446 
216 680 -4.500025 0.500147 1.103 
232 680 -5.200196 0.226590 1.013 
248 680 -5.798025 -0.006408 1.321 
264 680 -5.858207 -0.159496 1.368 
280 680 -6.097004 -0.321993 1.371 
296 680 -6.337526 -0.591935 2.704 
312 680 -6.007695 -0.535325 3.364 
328 680 -5.792275 -0.424085 5.903 
344 680 -5.695526 -0.413872 4.735 
360 680 -5.518245 -0.439141 3.708 
376 680 -5.513361 -0.540052 4.440 
392 680 -5.634110 -0.722266 4.055 
408 680 -5.719645 -0.729626 4.533 
424 680 -5.877449 -0.828719 2.845 
440 680 -5.689502 -0.821696 2.106 
456 680 -5.228074 -1.247581 1.708 
472 680 -5.119475 -1.303136 1.767 
488 680 -5.147321 -1.312166 2.239 
504 680 -5.399395 -1.315233 3.492 
520 680 -5.656781 -1.373399 2.904 
536 680 -5.550782 -1.518685 2.645 
552 680 -5.410494 -1.476036 1.853 
568 680 -5.427471 -1.142798 4.153 
584 680 -5.318503 -1.057126 2.635 
600 680 -5.036509 -1.855007 2.532 
616 680 -4.779941 -2.096783 3.384 
632 680 -5.129300 -1.855858 3.334 
648 680 -5.261832 -1.642986 3.011 
664 680 -5.008430 -1.519933 3.047 
680 680 -4.652159 -1.179749 1.492 
696 680 -4.453108 -1.230889 3.610 
712 680 -3.914128 -1.062480 2.520 
728 680 -3.368646 -0.808544 2.021 
744 680 -3.053690 -0.822407 2.049 
760 680 -3.056959 -0.850512 1.618 
776 680 -2.836683 -0.613088 1.400 
792 680 -2.455458 -0.464234 2.012 
808 680 -2.350289 -0.362053 2.204 
824 680 -2.425210 0.042044 1.617 
840 680 -2.847917 1.030613 2.365 
856 680 -3.038433 1.334077 2.403 
872 680 -3.047513 1.371043 2.698 
888 680 -2.814983 1.359833 2.941 
904 680 -2.554500 0.897357 2.111 
920 680 -2.721548 0.575855 1.078 
936 680 -3.366077 0.161989 1.030 
952 680 -3.402645 -0.299748 1.900 
968 680 -3.609043 -0.529269 1.221 
984 680 -3.509309 -0.579243 1.174 
1000 680 -3.486698 -1.033672 1.799 
1016 680 -2.878580 -1.018005 2.350 
1032 680 -2.519893 -0.582983 2.794 
1048 680 -1.983346 -0.877409 1.536 
1064 680 -1.912273 -0.891358 1.669 
1080 680 -2.160056 -0.878072 2.376 
1096 680 -2.530228 -1.042884 3.113 
1112 680 -2.585667 -0.931350 2.379 
1128 680 -1.726276 -0.626134 2.258 
1144 680 -1.732646 -0.329158 3.802 
1160 680 -2.319222 0.221444 1.740 
1176 680 -3.275096 0.484194 1.370 
1192 680 -4.454603 -1.463762 1.320 
1208 680 -6.037764 -3.290728 1.372 
1224 680 -9.034023 -2.997906 1.104 
1240 680 -14.903461 -2.216475 1.285 
1256 680 -20.814748 -2.689615 2.681 
1272 680 -24.499660 -1.909256 2.820 
8 664 -3.799146 -16.594356 1.014 
24 664 -0.614177 -10.440482 1.023 
40 664 0.930783 -6.117469 1.054 
56 664 -0.263299 -7.972201 1.454 
72 664 -1.457382 -9.826934 1.325 
88 664 -3.831407 0.194779 1.182 
104 664 -4.518068 1.088873 1.017 
120 664 -5.393606 2.104012 1.473 
136 664 -5.984194 2.172485 2.248 
152 664 -5.869452 1.014775 2.119 
168 664 -5.910721 0.358061 2.330 
184 664 -5.070148 0.259109 1.305 
200 664 -4.535245 0.872270 1.228 
216 664 -4.186784 0.531062 2.085 
232 664 -4.773237 0.209890 1.888 
248 664 -5.510173 0.020593 1.631 
264 664 -5.894157 0.141473 1.939 
280 664 -6.069415 -0.077307 1.724 
296 664 -5.930373 -0.763050 1.893 
312 664 -5.761373 -0.923143 2.368 
328 664 -5.824780 -0.682902 3.322 
344 664 -5.724127 -0.484818 2.717 
360 664 -5.634594 -0.358802 1.899 
376 664 -5.605263 -0.539277 1.444 
392 664 -5.481137 -0.890716 3.988 
408 664 -5.644063 -0.753163 2.126 
424 664 -5.629430 -0.844227 2.422 
440 664 -5.381389 -0.872609 2.405 
456 664 -5.220458 -0.991050 1.727 
472 664 -5.233129 -1.056489 1.319 
488 664 -5.183389 -1.161942 2.425 
504 664 -5.329122 -1.090751 2.721 
520 664 -5.690608 -1.082119 3.768 
536 664 -5.510064 -1.331991 2.510 
552 664 -5.381031 -1.246586 1.567 
568 664 -5.350408 -1.069887 3.189 
584 664 -5.302017 -1.267109 2.222 
600 664 -5.139219 -1.620499 2.215 
616 664 -4.884983 -1.932537 2.273 
632 664 -4.855978 -1.787860 2.380 
648 664 -5.343403 -1.752291 3.523 
664 664 -5.104745 -1.651455 4.224 
680 664 -4.598193 -1.418617 2.789 
696 664 -4.651805 -1.440089 3.922 
712 664 -4.270083 -1.213166 3.867 
728 664 -3.747162 -1.066056 3.324 
744 664 -3.434819 -1.030746 1.798 
760 664 -3.282429 -0.889683 1.268 
776 664 -3.015501 -0.648627 1.149 
792 664 -2.443013 -0.125421 1.498 
808 664 -2.279458 -0.378390 1.736 
824 664 -2.455189 0.046415 1.966 
840 664 -2.728881 0.790573 2.450 
856 664 -3.013737 1.109664 3.504 
872 664 -3.020912 1.196465 2.071 
888 664 -2.832086 1.337059 2.009 
904 664 -2.838520 0.888295 1.543 
920 664 -2.225657 0.382705 1.776 
936 664 -2.833265 0.128617 1.808 
952 664 -3.012571 -0.140011 1.191 
968 664 -3.168123 -0.460574 1.507 
984 664 -3.128209 -0.743750 2.299 
1000 664 -3.064389 -0.996632 2.459 
1016 664 -2.677092 -1.069916 3.579 
1032 664 -2.293376 -0.874027 6.042 
1048 664 -2.036741 -0.624258 2.306 
1064 664 -2.228591 -0.477920 1.631 
1080 664 -2.336697 -0.572820 1.172 
1096 664 -2.647033 -0.846752 3.165 
1112 664 -2.622629 -0.809955 2.197 
1128 664 -2.221836 -0.708770 1.434 
1144 664 -2.045574 -0.721239 1.364 
1160 664 -2.617878 -0.498833 1.009 
1176 664 -3.515072 0.160960 1.611 
1192 664 -4.375204 -0.099546 1.796 
1208 664 -5.403456 -0.916321 2.125 
1224 664 -9.430154 -1.032692 1.181 
1240 664 -15.818223 -0.886745 1.219 
1256 664 -21.214200 -0.303755 1.915 
1272 664 -24.587807 -0.450516 1.881 
8 648 -12.474187 -16.962118 1.040 
24 648 -7.480437 -10.645567 1.004 
40 648 0.987420 -4.419658 1.486 
56 648 -0.322130 -7.781773 1.004 
72 648 -2.520858 -9.507637 1.197 
88 648 -3.581305 -3.672594 1.064 
104 648 -4.203932 1.071525 1.291 
120 648 -5.702440 1.907909 1.418 
136 648 -5.935583 1.582478 1.418 
152 648 -6.187427 1.068385 1.016 
168 648 -6.219421 1.170349 2.147 
184 648 -5.819718 0.919026 1.617 
200 648 -4.883360 1.173759 1.619 
216 648 -4.337019 0.633045 2.064 
232 648 -4.438456 0.045181 2.936 
248 648 -5.106740 0.101085 1.376 
264 648 -5.775024 0.156990 1.607 
280 648 -6.027681 -0.006295 1.761 
296 648 -5.691052 -0.700980 1.615 
312 648 -5.718242 -0.755686 2.310 
328 648 -5.831479 -0.653239 1.835 
344 648 -5.616629 -0.381001 2.146 
360 648 -5.551240 -0.485655 3.359 
376 648 -5.547538 -0.766693 3.436 
392 648 -5.398843 -0.763864 3.295 
408 648 -5.544957 -0.737349 1.603 
424 648 -5.440950 -0.717844 1.577 
440 648 -5.286468 -0.892539 2.474 
456 648 -5.264485 -0.828811 2.279 
472 648 -5.247688 -1.048042 1.347 
488 648 -5.206545 -1.096795 2.576 
504 648 -5.455351 -0.924479 2.262 
520 648 -5.781542 -0.929074 1.852 
536 648 -5.717758 -1.099770 2.067 
552 648 -5.551166 -1.204002 3.207 
568 648 -5.525577 -1.183563 1.991 
584 648 -5.496190 -1.456105 2.363 
600 648 -5.340764 -1.692543 1.567 
616 648 -4.990025 -1.768291 2.056 
632 648 -4.999631 -1.944919 2.019 
648 648 -5.428352 -1.997682 1.907 
664 648 -5.134857 -1.986195 2.382 
680 648 -4.646494 -1.971617 2.364 
696 648 -4.727967 -1.740715 3.326 
712 648 -4.456758 -1.451246 6.084 
728 648 -3.980233 -1.320452 5.723 
744 648 -3.819036 -1.278170 3.025 
760 648 -3.426186 -1.196627 1.307 
776 648 -3.145452 -0.806122 1.257 
792 648 -2.735035 -0.404131 1.822 
808 648 -2.504367 -0.584754 2.815 
824 648 -2.366717 -0.060032 2.917 
840 648 -2.401526 0.571325 3.272 
856 648 -2.907631 0.918845 1.853 
872 648 -2.892214 1.122553 1.714 
888 648 -2.607914 0.917963 2.078 
904 648 -2.604975 0.428464 2.939 
920 648 -2.242195 -0.343700 1.889 
936 648 -2.111686 -0.508294 3.561 
952 648 -2.472761 -0.330759 1.026 
968 648 -2.791532 -0.218752 1.243 
984 648 -3.114897 -0.563279 1.165 
1000 648 -3.035555 -0.815253 2.669 
1016 648 -2.703720 -0.904866 2.473 
1032 648 -2.369194 -0.703721 4.383 
1048 648 -2.183602 -0.205630 2.787 
1064 648 -2.492987 -0.276575 1.183 
1080 648 -2.437939 -0.547742 1.705 
1096 648 -2.594736 -0.622236 1.502 
1112 648 -2.494433 -0.479446 1.193 
1128 648 -2.160994 -0.341916 1.664 
1144 648 -2.496315 -0.802866 1.141 
1160 648 -3.128159 -0.664249 1.832 
1176 648 -3.649340 -0.109691 1.085 
1192 648 -4.217398 0.005087 3.530 
1208 648 -5.068864 0.219006 3.376 
1224 648 -10.261688 1.638834 1.393 
1240 648 -14.890392 0.914536 1.043 
1256 648 -19.519097 0.190237 1.002 
1272 648 -22.956446 1.403652 1.005 
8 632 -12.599820 -16.160112 1.162 
24 632 -12.991502 -14.185571 1.140 
40 632 1.044057 -2.721848 1.082 
56 632 0.623684 -7.720214 1.077 
72 632 -2.668547 -7.534047 1.223 
88 632 -3.603100 -3.918882 1.315 
104 632 -4.416899 1.184809 1.870 
120 632 -5.294796 1.876046 1.643 
136 632 -5.743209 1.547390 1.066 
152 632 -6.192374 1.129714 1.797 
168 632 -6.357349 1.064839 2.220 
184 632 -6.210678 1.222508 1.592 
200 632 -6.025911 1.230026 1.644 
216 632 -5.795340 0.898035 2.265 
232 632 -5.410849 -0.697371 1.726 
248 632 -5.784896 -0.529925 1.801 
264 632 -6.158943 -0.362479 1.111 
280 632 -6.297195 -0.071837 1.031 
296 632 -5.701247 -0.540411 2.131 
312 632 -5.730850 -0.769973 1.222 
328 632 -5.583897 -0.024325 1.770 
344 632 -5.508679 -0.252215 2.397 
360 632 -5.546400 -0.532000 2.930 
376 632 -5.591888 -0.763327 1.113 
392 632 -5.476304 -0.867190 1.316 
408 632 -5.456874 -0.711132 1.350 
424 632 -5.641683 -0.763133 2.502 
440 632 -5.403967 -0.944463 4.729 
456 632 -5.145981 -0.883194 2.643 
472 632 -5.125222 -1.051737 2.347 
488 632 -5.028135 -1.221889 2.730 
504 632 -5.267418 -1.227364 4.556 
520 632 -5.592139 -1.174412 2.293 
536 632 -5.615961 -1.132938 1.530 
552 632 -5.540040 -1.224868 2.783 
568 632 -5.611842 -1.333491 2.694 
584 632 -5.627242 -1.588188 1.186 
600 632 -5.444023 -1.567738 1.079 
616 632 -5.364238 -1.710662 1.233 
632 632 -5.264851 -2.029282 2.084 
648 632 -5.369308 -2.177371 3.880 
664 632 -5.194741 -2.282275 2.283 
680 632 -4.932183 -2.272159 1.712 
696 632 -4.729942 -1.888636 9.602 
712 632 -4.443510 -1.618581 4.242 
728 632 -4.039622 -1.526519 3.285 
744 632 -3.595919 -1.578872 1.177 
760 632 -3.339090 -1.541842 1.455 
776 632 -3.121068 -1.143473 1.301 
792 632 -2.832178 -0.924697 2.724 
808 632 -2.394100 -0.927793 3.101 
824 632 -2.287316 -0.407874 3.846 
840 632 -2.535603 0.089277 2.503 
856 632 -2.827044 0.582856 2.844 
872 632 -2.773314 0.971902 2.356 
888 632 -2.615469 0.879463 1.881 
904 632 -2.200991 0.367883 3.148 