TITLE = "B00150"
VARIABLES = "x", "y", "u", "v", "sn"
ZONE T="Frame 0", I=80, J=50
8 792 0.000000 -0.000000 1.193 
24 792 14.303606 9.570934 1.246 
40 792 -3.106943 -0.763964 1.632 
56 792 -1.375961 -0.220733 1.043 
72 792 0.355021 0.322498 1.333 
88 792 0.000580 -1.920451 1.890 
104 792 -0.626420 -2.792476 1.559 
120 792 -0.674464 -3.374114 1.175 
136 792 -2.409032 -3.147371 1.005 
152 792 -4.143601 -2.920627 1.273 
168 792 -6.193120 -1.504787 5.068 
184 792 -6.829201 -1.345914 1.615 
200 792 -7.261955 -1.503262 3.236 
216 792 -7.681491 -1.567622 3.568 
232 792 -8.093026 -1.283890 4.909 
248 792 -8.876154 -0.796492 2.592 
264 792 -9.603039 -0.316512 2.223 
280 792 -9.806869 -0.103907 1.863 
296 792 -9.740644 0.097086 2.453 
312 792 -9.233657 0.649191 1.568 
328 792 -8.557156 0.628445 2.645 
344 792 -8.715554 -0.730059 3.174 
360 792 -8.663057 -0.987662 1.932 
376 792 -8.803902 0.264924 2.290 
392 792 -8.860732 0.295871 2.734 
408 792 -9.179306 -1.104307 1.955 
424 792 -9.220838 -1.265462 2.908 
440 792 -9.262371 -1.426618 3.330 
456 792 -9.018943 -0.988549 2.576 
472 792 -8.966386 -0.955471 1.983 
488 792 -9.302276 -1.567154 2.669 
504 792 -9.280156 -1.431037 1.962 
520 792 -8.535363 -0.989436 1.980 
536 792 -7.711868 -1.239171 2.824 
552 792 -7.846138 -2.131331 2.400 
568 792 -8.120991 -2.584191 1.995 
584 792 -8.126829 -2.472189 2.902 
600 792 -7.923979 -2.098426 2.542 
616 792 -7.975202 -1.631415 1.769 
632 792 -8.047541 -1.186569 2.613 
648 792 -8.240439 -0.735928 1.309 
664 792 -8.132935 -0.662048 1.411 
680 792 -7.612860 -0.664463 2.430 
696 792 -7.092786 -0.666878 2.711 
712 792 -6.925949 0.106448 2.308 
728 792 -6.785056 -0.026946 1.887 
744 792 -6.668722 0.186485 5.118 
760 792 -7.670277 -0.725494 3.132 
776 792 -8.748365 -2.371371 3.327 
792 792 -8.768911 -3.049733 1.859 
808 792 -8.789457 -3.728095 2.536 
824 792 -9.035191 -3.666612 1.981 
840 792 -9.513260 -3.221480 2.611 
856 792 -9.611556 -2.760051 2.189 
872 792 -9.145074 -3.113773 2.961 
888 792 -8.083364 -3.144509 3.523 
904 792 -7.332188 -3.031734 1.685 
920 792 -6.949366 -3.024039 1.883 
936 792 -6.191978 -2.875301 2.650 
952 792 -6.181807 -2.828190 2.644 
968 792 -6.171637 -2.781078 1.744 
984 792 -6.552205 -1.916936 2.213 
1000 792 -6.221384 -2.050733 3.397 
1016 792 -5.860014 -2.751018 5.411 
1032 792 -5.787690 -3.068934 4.970 
1048 792 -6.367821 -2.892198 2.504 
1064 792 -7.172375 -3.022455 2.251 
1080 792 -7.269145 -3.159154 2.746 
1096 792 -7.630948 -3.332672 3.113 
1112 792 -6.887232 -2.528319 2.100 
1128 792 -3.827123 -0.441477 1.097 
1144 792 -4.262177 -0.236469 1.047 
1160 792 -4.697231 -0.031462 2.316 
1176 792 -5.132286 0.173546 1.032 
1192 792 -5.567340 0.378553 1.356 
1208 792 -6.002394 0.583561 1.080 
1224 792 6.429273 8.856556 1.650 
1240 792 5.519582 8.685600 1.075 
1256 792 4.609891 8.514643 1.152 
1272 792 0.000000 -0.000000 1.207 
8 776 13.572695 12.697600 1.172 
24 776 5.825675 9.736420 1.207 
40 776 -3.186768 3.583941 1.716 
56 776 -1.917425 2.775325 1.011 
72 776 0.448108 2.846750 1.366 
88 776 0.195513 0.290109 1.909 
104 776 -0.478569 -1.026106 1.638 
120 776 -0.885044 -2.147201 1.152 
136 776 -2.621787 -2.979738 1.034 
152 776 -4.662686 -2.895302 1.227 
168 776 -6.331576 -1.695944 17.091 
184 776 -6.992482 -1.514167 1.609 
200 776 -7.479608 -1.688770 3.195 
216 776 -7.931136 -1.854240 3.522 
232 776 -8.415975 -1.561500 4.797 
248 776 -9.178424 -1.101902 2.484 
264 776 -9.819676 -0.475049 2.241 
280 776 -9.783320 -0.082665 1.892 
296 776 -9.424911 0.277804 2.361 
312 776 -8.875503 0.739069 1.669 
328 776 -8.328096 0.761606 2.882 
344 776 -8.552472 -0.470395 3.170 
360 776 -8.527137 -0.774123 1.902 
376 776 -8.601664 0.313283 2.176 
392 776 -8.613119 0.323786 2.595 
408 776 -9.127559 -0.936407 2.105 
424 776 -9.526932 -1.643235 2.834 
440 776 -9.301733 -1.332793 3.612 
456 776 -8.993535 -0.973038 2.570 
472 776 -8.909088 -0.940839 2.076 
488 776 -9.168406 -1.462475 2.733 
504 776 -9.132904 -1.276264 1.916 
520 776 -8.438566 -0.884883 1.869 
536 776 -7.737706 -1.220201 2.875 
552 776 -7.941299 -2.094645 2.393 
568 776 -8.247161 -2.451507 1.928 
584 776 -8.250860 -2.311173 3.094 
600 776 -8.031625 -2.009338 2.484 
616 776 -7.958500 -1.546051 1.773 
632 776 -7.908559 -1.073979 2.563 
648 776 -8.010099 -0.637819 1.341 
664 776 -7.889035 -0.667959 1.437 
680 776 -7.479707 -1.050886 2.498 
696 776 -6.853650 -0.752399 2.785 
712 776 -6.763559 -0.023398 2.335 
728 776 -6.797491 -0.063980 1.924 
744 776 -6.802260 0.219949 5.239 
760 776 -7.687203 -0.716544 3.090 
776 776 -8.589338 -2.443524 3.250 
792 776 -8.630953 -3.064822 1.909 
808 776 -8.672569 -3.686120 2.434 
824 776 -8.873817 -3.660973 2.004 
840 776 -9.332080 -3.170660 2.570 
856 776 -9.473561 -2.615472 2.396 
872 776 -9.007341 -2.829852 2.861 
888 776 -7.951653 -2.882496 3.545 
904 776 -7.174780 -2.976213 1.736 
920 776 -6.783513 -2.784272 1.895 
936 776 -6.128683 -2.720543 2.497 
952 776 -6.039006 -3.318422 2.907 
968 776 -6.337347 -3.030436 2.016 
984 776 -6.619861 -2.325336 2.173 
1000 776 -6.342721 -2.383212 3.911 
1016 776 -5.987300 -2.914877 6.023 
1032 776 -6.061130 -3.250260 5.398 
1048 776 -6.434708 -3.057396 2.489 
1064 776 -6.803045 -3.164925 2.587 
1080 776 -7.034848 -3.053988 2.782 
1096 776 -7.314123 -3.311786 3.087 
1112 776 -6.605011 -2.561733 1.773 
1128 776 -3.894345 -0.553998 1.041 
1144 776 -0.978449 -0.398166 1.003 
1160 776 -1.849757 -0.253979 2.337 
1176 776 -2.721064 -0.109791 1.033 
1192 776 -3.592372 0.034396 1.328 
1208 776 -6.336127 -0.108201 1.021 
1224 776 2.177947 4.935917 1.808 
1240 776 5.747470 9.411692 1.091 
1256 776 5.342195 9.312199 1.172 
1272 776 3.820584 7.095514 1.228 
8 760 4.770662 12.466602 1.013 
24 760 0.872965 9.476274 1.030 
40 760 -0.603935 10.098194 1.304 
56 760 -0.742142 1.364973 1.031 
72 760 0.822564 1.520915 1.314 
88 760 0.472473 0.871862 1.826 
104 760 -0.178503 -0.171564 1.487 
120 760 -0.195055 -1.609338 1.228 
136 760 -2.637639 -2.956149 1.151 
152 760 -5.155584 -3.273512 1.046 
168 760 -6.471891 -1.663624 1.523 
184 760 -7.048570 -1.620497 1.692 
200 760 -7.511524 -1.886438 3.144 
216 760 -8.010960 -2.069019 3.164 
232 760 -8.676591 -2.085292 3.481 
248 760 -9.600287 -1.392352 2.824 
264 760 -9.912682 -0.419661 2.438 
280 760 -9.121184 -0.314415 2.128 
296 760 -8.629539 0.028921 2.881 
312 760 -8.097846 0.800284 2.985 
328 760 -8.225180 0.749055 2.152 
344 760 -8.461933 -0.091694 4.333 
360 760 -8.336297 -0.519451 2.359 
376 760 -8.168601 0.415148 4.926 
392 760 -8.309103 0.391682 5.855 
408 760 -8.907176 -0.465336 4.418 
424 760 -9.579711 -1.350916 1.861 
440 760 -9.528967 -1.414998 2.354 
456 760 -9.104321 -1.122969 2.961 
472 760 -8.814181 -1.387674 2.879 
488 760 -8.835990 -1.346795 4.078 
504 760 -8.641450 -0.679359 3.446 
520 760 -7.931740 -0.462188 2.412 
536 760 -7.642644 -1.365731 2.226 
552 760 -7.952278 -2.206996 1.894 
568 760 -8.389023 -2.316430 1.736 
584 760 -8.569459 -2.178438 2.512 
600 760 -8.449117 -1.864829 3.246 
616 760 -7.899787 -1.221389 1.728 
632 760 -7.557945 -0.756622 3.144 
648 760 -7.517359 -0.475976 1.955 
664 760 -7.247370 -0.885083 2.905 
680 760 -6.586694 -1.183325 3.471 
696 760 -6.510619 -1.101988 1.975 
712 760 -7.250867 -0.624411 2.016 
728 760 -7.208349 -0.026282 2.532 
744 760 -7.266651 0.179833 4.818 
760 760 -7.891144 -0.725406 6.129 
776 760 -8.338957 -2.473113 3.370 
792 760 -8.603752 -4.403026 2.947 
808 760 -8.528019 -4.563625 2.189 
824 760 -8.534688 -4.080465 1.379 
840 760 -8.958217 -3.613953 2.159 
856 760 -8.962866 -2.958786 2.636 
872 760 -8.729389 -2.609327 2.877 
888 760 -7.618542 -2.137006 4.075 
904 760 -6.720190 -1.631165 3.079 
920 760 -6.630681 -1.751425 3.119 
936 760 -6.488451 -2.436312 2.898 
952 760 -6.912513 -3.314047 1.774 
968 760 -7.211413 -3.581918 1.613 
984 760 -7.315896 -2.645352 6.486 
1000 760 -6.861231 -2.245665 3.097 
1016 760 -6.349911 -3.205462 7.826 
1032 760 -6.334570 -3.431585 3.250 
1048 760 -6.431493 -3.392349 2.551 
1064 760 -6.433715 -3.307396 1.803 
1080 760 -6.384928 -2.985988 4.260 
1096 760 -6.285628 -3.070324 2.217 
1112 760 -6.535312 -2.400537 1.562 
1128 760 -4.624933 -0.711978 1.077 
1144 760 -2.208939 -0.792421 1.016 
1160 760 0.971977 -0.136308 2.084 
1176 760 0.648322 0.149943 1.282 
1192 760 1.612675 1.411512 1.627 
1208 760 -3.777444 -1.369493 1.046 
1224 760 -2.073379 1.015277 1.179 
1240 760 -3.571608 0.603953 1.019 
1256 760 -5.250613 -0.343708 1.243 
1272 760 -7.667570 -0.928660 1.285 
8 744 -5.217008 10.231778 1.224 
24 744 -4.079744 9.216127 1.270 
40 744 -2.179116 7.193065 2.067 
56 744 0.433142 -0.045379 1.010 
72 744 1.197021 0.195079 1.172 
88 744 0.114153 -1.540360 1.035 
104 744 0.068858 -2.873664 1.063 
120 744 0.023563 -4.206968 1.037 
136 744 -6.605503 -3.391214 1.136 
152 744 -5.871335 -2.640456 1.105 
168 744 -6.619842 -1.564811 1.415 
184 744 -6.966188 -1.590814 1.905 
200 744 -7.608759 -1.955853 2.075 
216 744 -8.078430 -2.178480 1.723 
232 744 -8.711964 -2.218738 2.137 
248 744 -9.811531 -1.630031 1.380 
264 744 -9.894001 -0.400027 1.327 
280 744 -9.137406 0.140900 2.430 
296 744 -8.308652 0.403804 2.462 
312 744 -8.000034 0.454519 4.183 
328 744 -8.439058 0.302565 2.670 
344 744 -8.601841 -0.158327 3.923 
360 744 -8.843008 -0.479109 1.717 
376 744 -8.300179 -0.051352 3.350 
392 744 -8.435568 0.031753 5.154 
408 744 -8.968045 -0.516561 3.272 
424 744 -9.566236 -1.096151 1.568 
440 744 -9.417714 -1.241925 3.078 
456 744 -8.897462 -1.417926 2.816 
472 744 -8.527287 -1.551316 2.962 
488 744 -8.391470 -1.374477 2.247 
504 744 -8.129227 -0.822618 1.263 
520 744 -7.751749 -0.754725 2.810 
536 744 -7.699317 -1.754407 3.013 
552 744 -8.042047 -2.139084 2.271 
568 744 -8.460234 -2.115845 2.989 
584 744 -8.258661 -1.795063 4.353 
600 744 -7.983832 -1.407489 1.615 
616 744 -7.118378 -0.974998 1.663 
632 744 -6.765335 -0.355630 2.133 
648 744 -6.782416 0.014327 3.126 
664 744 -6.975724 -0.533037 1.655 
680 744 -6.568729 -0.974857 2.364 
696 744 -6.468791 -1.182912 2.959 
712 744 -7.135844 -1.053621 2.799 
728 744 -7.952875 -0.260841 1.475 
744 744 -8.192250 0.016943 2.408 
760 744 -8.265489 -0.564877 2.587 
776 744 -7.685996 -2.788964 3.282 
792 744 -8.221224 -4.554825 2.775 
808 744 -8.434406 -4.814912 2.702 
824 744 -8.343710 -4.699080 1.933 
840 744 -8.764131 -3.958364 1.726 
856 744 -8.829646 -3.422862 1.374 
872 744 -8.631428 -3.015025 1.787 
888 744 -7.350885 -1.851548 2.091 
904 744 -6.566261 -1.364701 2.314 
920 744 -6.762964 -1.132132 2.084 
936 744 -6.973425 -2.102788 2.933 
952 744 -7.204487 -2.860861 2.914 
968 744 -7.146940 -3.239870 3.946 
984 744 -7.415452 -3.310855 3.665 
1000 744 -6.629229 -2.840095 2.992 
1016 744 -6.589994 -3.176737 2.063 
1032 744 -6.640227 -3.362803 4.620 
1048 744 -6.815692 -3.377050 3.106 
1064 744 -6.721235 -3.367129 2.488 
1080 744 -6.649686 -3.176283 4.918 
1096 744 -6.343552 -3.313511 2.960 
1112 744 -6.587258 -2.871618 1.598 
1128 744 -5.398705 -2.010302 1.997 
1144 744 -3.439429 -1.186676 1.955 
1160 744 -0.235820 -1.670195 1.044 
1176 744 1.062275 -2.583989 1.021 
1192 744 1.857100 -1.273376 1.631 
1208 744 -1.218761 -2.630785 1.002 
1224 744 -4.750366 -2.930323 1.329 
1240 744 -5.344106 -2.420298 1.133 
1256 744 -12.555955 -2.222022 1.137 
1272 744 -17.943173 -2.053796 1.068 
8 728 -12.607893 8.137122 1.230 
24 728 -10.663618 6.517714 1.164 
40 728 -5.947412 3.100331 1.173 
56 728 1.608425 -1.455731 1.385 
72 728 1.571477 -1.130756 1.075 
88 728 1.042471 -0.203720 1.210 
104 728 0.204734 -1.081516 1.056 
120 728 -0.465126 -4.491594 1.184 
136 728 -6.151593 -2.906851 1.041 
152 728 -6.243723 -2.030905 1.265 
168 728 -6.838938 -1.053094 1.117 
184 728 -7.110761 -1.130646 1.663 
200 728 -7.440488 -1.560310 2.582 
216 728 -7.802981 -1.873775 3.957 
232 728 -8.543623 -1.939175 2.476 
248 728 -10.034356 -2.005094 1.750 
264 728 -9.966261 -0.846919 1.526 
280 728 -9.061672 -0.226833 2.106 
296 728 -8.021302 0.131077 2.964 
312 728 -7.902222 0.108755 4.643 
328 728 -8.374009 -0.136030 3.587 
344 728 -8.457147 -0.513749 7.728 
360 728 -8.079985 -1.188429 2.607 
376 728 -8.590636 -0.872946 1.551 
392 728 -9.329039 -1.049425 1.131 
408 728 -9.155716 -0.641477 1.206 
424 728 -9.194355 -0.490928 1.333 
440 728 -9.065051 -1.047208 1.963 
456 728 -8.529767 -1.446813 2.940 
472 728 -8.159408 -1.605580 3.364 
488 728 -8.047200 -1.640700 3.612 
504 728 -7.862534 -1.279136 2.831 
520 728 -7.710858 -1.383871 1.720 
536 728 -7.961203 -2.238495 2.246 
552 728 -7.826518 -2.264605 1.581 
568 728 -7.681415 -1.887659 2.144 
584 728 -7.448612 -1.210286 2.516 
600 728 -7.348959 -0.853002 1.981 
616 728 -6.228564 -0.759229 1.548 
632 728 -6.258764 -0.024310 1.448 
648 728 -6.833167 -0.094246 4.578 
664 728 -7.109594 -0.515207 1.552 
680 728 -7.069439 -0.971804 1.762 
696 728 -6.856370 -1.368815 3.011 
712 728 -7.560702 -1.317382 3.970 
728 728 -8.414343 -0.955756 2.489 
744 728 -9.421573 -0.335394 2.299 
760 728 -9.274308 -1.285130 2.766 
776 728 -8.049194 -3.107784 2.865 
792 728 -7.838695 -4.706625 3.254 
808 728 -8.340793 -5.066199 2.412 
824 728 -8.814623 -4.376378 2.215 
840 728 -8.877044 -3.919257 2.047 
856 728 -8.799743 -3.286579 1.266 
872 728 -8.204181 -2.914838 1.011 
888 728 -7.553597 -2.862133 2.897 
904 728 -6.853608 -2.333557 4.858 
920 728 -7.062742 -1.415433 1.876 
936 728 -7.269163 -1.701633 1.990 
952 728 -7.496461 -2.407675 2.149 
968 728 -7.082466 -2.897822 2.031 
984 728 -5.975735 -2.960656 2.780 
1000 728 -4.852528 -2.822336 1.512 
1016 728 -5.808964 -3.067188 3.048 
1032 728 -6.543605 -3.171919 4.712 
1048 728 -6.842715 -3.083941 3.256 
1064 728 -6.830037 -3.249989 2.616 
1080 728 -6.901932 -3.158705 2.372 
1096 728 -6.641350 -3.249070 2.237 
1112 728 -6.228893 -3.136945 1.680 
1128 728 -5.705466 -2.284406 2.780 
1144 728 -4.288805 -1.679719 2.195 
1160 728 -1.861427 -2.396287 1.279 
1176 728 -1.309852 -3.207058 1.151 
1192 728 0.500605 -6.527577 1.239 
1208 728 -5.033742 -6.522829 1.172 
1224 728 -10.978426 -4.989319 1.091 
1240 728 -16.787569 -3.841055 1.029 
1256 728 -23.686842 -2.793095 1.100 
1272 728 -27.479807 -2.183589 1.037 
8 712 -20.265334 7.702754 1.251 
24 712 -17.540030 5.216839 1.251 
40 712 -10.376928 0.340040 1.143 
56 712 -4.690250 0.383152 1.170 
72 712 0.996427 0.426264 1.115 
88 712 1.970789 1.132920 1.079 
104 712 0.340610 0.710633 1.124 
120 712 -0.953814 -4.776219 1.026 
136 712 -5.747416 -2.071095 1.501 
152 712 -6.692283 -0.562935 1.390 
168 712 -7.061945 -0.415103 2.309 
184 712 -7.344305 -0.656791 1.340 
200 712 -7.374386 -1.844521 2.405 
216 712 -7.515551 -1.749802 1.334 
232 712 -8.372911 -1.560035 2.359 
248 712 -9.539454 -2.410799 1.461 
264 712 -9.919203 -1.490612 1.469 
280 712 -8.947293 -0.591060 2.456 
296 712 -8.293974 -0.343334 2.352 
312 712 -7.813486 -0.386975 1.613 
328 712 -7.873663 -0.455514 1.996 
344 712 -8.408503 -0.921168 1.586 
360 712 -8.121216 -1.292112 1.362 
376 712 -8.771322 -1.579304 1.267 
392 712 -9.180608 -1.349376 1.035 
408 712 -9.213554 -0.853758 1.103 
424 712 -9.081828 -0.533017 1.640 
440 712 -8.756286 -0.830264 1.938 
456 712 -8.130379 -1.216471 2.165 
472 712 -7.770467 -1.429826 3.848 
488 712 -7.743880 -1.582779 2.836 
504 712 -7.812839 -1.759863 2.428 
520 712 -7.626992 -1.925922 2.030 
536 712 -7.362182 -2.227551 1.384 
552 712 -6.998476 -1.961248 1.627 
568 712 -7.088654 -2.030031 1.865 
584 712 -6.669767 -1.158191 2.130 
600 712 -6.506212 -1.083376 1.639 
616 712 -6.173055 -0.840342 1.906 
632 712 -6.418326 -0.395060 1.249 
648 712 -6.883918 -0.202818 3.254 
664 712 -7.375498 -0.751933 2.167 
680 712 -7.508970 -1.213074 2.703 
696 712 -7.456190 -1.644551 2.282 
712 712 -8.079800 -1.694942 3.374 
728 712 -8.998397 -1.349799 2.473 
744 712 -10.149851 -1.218145 2.268 
760 712 -10.457736 -2.018583 2.138 
776 712 -10.124317 -3.375841 2.923 
792 712 -9.894124 -4.397137 3.280 
808 712 -9.585291 -4.293751 2.211 
824 712 -9.683893 -3.402746 2.367 
840 712 -9.217234 -2.432143 1.829 
856 712 -8.743253 -2.216289 1.030 
872 712 -7.786659 -2.264719 1.181 
888 712 -7.279218 -2.720480 4.163 
904 712 -6.786989 -2.761306 2.247 
920 712 -6.467160 -1.449690 2.398 
936 712 -6.208028 -0.891536 5.832 
952 712 -5.851800 -1.052959 3.301 
968 712 -5.813521 -1.513550 1.856 
984 712 -4.227995 -1.341600 2.066 
1000 712 -3.886207 -1.903732 4.582 
1016 712 -4.236730 -2.752586 2.404 
1032 712 -5.484197 -3.176549 2.801 
1048 712 -6.267711 -3.511811 2.358 
1064 712 -6.541257 -3.043214 1.712 
1080 712 -6.886994 -2.827325 1.485 
1096 712 -6.867646 -2.784215 2.338 
1112 712 -6.482700 -2.672614 1.932 
1128 712 -6.369818 -2.227764 3.439 
1144 712 -5.507478 -2.011051 3.597 
1160 712 -4.074222 -2.042402 4.622 
1176 712 -3.681979 -3.830127 1.906 
1192 712 -3.932309 -6.804094 1.008 
1208 712 -6.948611 -5.721072 1.042 
1224 712 -19.228884 -4.821110 1.162 
1240 712 -27.295379 -4.187842 1.011 
1256 712 -33.589332 -3.373423 1.078 
1272 712 -37.016441 -2.313381 1.289 
8 696 -23.516108 10.697492 1.108 
24 696 -21.824331 7.971292 1.080 
40 696 -21.371321 0.998895 1.104 
56 696 -10.980525 0.912037 1.012 
72 696 -0.589729 0.825179 1.297 
88 696 0.940541 0.695962 1.010 
104 696 0.289323 -0.126137 1.063 
120 696 -2.304585 -3.094159 1.043 
136 696 -5.078705 -1.536623 1.395 
152 696 -6.056946 -0.641372 1.133 
168 696 -6.385116 -0.725812 2.201 
184 696 -7.149403 -1.542725 1.065 
200 696 -7.495079 -2.118568 1.281 
216 696 -7.426306 -2.187694 1.429 
232 696 -7.644421 -1.996210 2.044 
248 696 -9.020108 -2.637847 1.213 
264 696 -9.795047 -2.026259 2.286 
280 696 -9.267255 -0.973403 2.381 
296 696 -8.460489 -0.825227 1.831 
312 696 -7.869457 -0.827449 1.942 
328 696 -8.317666 -0.920796 2.075 
344 696 -8.255676 -1.127976 1.441 
360 696 -8.076046 -1.241700 1.253 
376 696 -8.489298 -1.504525 1.334 
392 696 -8.961770 -1.556000 1.339 
408 696 -9.098667 -1.128319 1.082 
424 696 -8.933201 -0.835879 1.216 
440 696 -8.703887 -1.065497 1.562 
456 696 -8.075946 -1.110103 2.697 
472 696 -7.653014 -1.309306 2.156 
488 696 -7.582883 -1.362465 1.436 
504 696 -7.782913 -1.761481 1.783 
520 696 -7.338116 -1.689599 1.533 
536 696 -6.981155 -2.016829 2.229 
552 696 -6.701766 -2.131561 1.876 
568 696 -6.577950 -2.046893 1.330 
584 696 -6.539858 -1.708678 2.335 
600 696 -6.294481 -1.024612 2.481 
616 696 -6.366464 -1.028689 2.682 
632 696 -7.023147 -0.817962 1.921 
648 696 -7.307946 -0.802278 3.789 
664 696 -7.636002 -1.092574 2.486 
680 696 -7.622592 -1.371218 1.395 
696 696 -8.264856 -2.023851 4.001 
712 696 -8.981342 -2.003853 2.742 
728 696 -9.312484 -1.938437 1.220 
744 696 -10.059972 -1.796469 2.146 
760 696 -10.303915 -2.411904 1.630 
776 696 -10.481458 -3.467355 1.766 
792 696 -10.152566 -3.657273 1.630 
808 696 -10.034887 -2.984311 1.964 
824 696 -10.021522 -1.990501 2.238 
840 696 -9.557424 -0.945029 1.644 
856 696 -8.541064 -0.925329 2.413 
872 696 -7.565190 -1.248886 3.611 
888 696 -6.829505 -2.142417 2.458 
904 696 -6.413913 -1.946416 3.132 
920 696 -5.968579 -1.275498 2.387 
936 696 -5.402694 -0.195598 8.071 
952 696 -5.011251 -0.074045 3.364 
968 696 -5.058615 -0.305626 3.326 
984 696 -4.278423 -0.148545 5.521 
1000 696 -3.705532 -0.691060 8.326 
1016 696 -4.171563 -2.499136 1.982 
1032 696 -5.286951 -4.253776 1.688 
1048 696 -5.865605 -4.029374 2.446 
1064 696 -6.634217 -3.006762 2.549 
1080 696 -7.028690 -2.532522 2.656 
1096 696 -6.987385 -2.607527 1.266 
1112 696 -6.753117 -2.637073 1.169 
1128 696 -6.367542 -2.643399 2.158 
1144 696 -6.294671 -2.533220 2.733 
1160 696 -5.924136 -2.259888 3.096 
1176 696 -5.518238 -3.235065 2.238 
1192 696 -6.658960 -5.117928 1.770 
1208 696 -8.863481 -4.919314 1.144 
1224 696 -22.548288 -5.269834 1.030 
1240 696 -30.824776 -5.262166 1.105 
1256 696 -39.101264 -5.254497 1.060 
1272 696 -36.550020 -3.224900 1.050 
8 680 -22.924329 17.480620 1.055 
24 680 -23.500648 13.181681 1.034 
40 680 -23.445083 5.360140 1.553 
56 680 -13.298193 1.803289 1.039 
72 680 -4.012990 0.402934 1.176 
88 680 -0.089707 0.259005 1.233 
104 680 -0.396485 -0.973751 1.218 
120 680 -3.655355 -1.412099 1.002 
136 680 -4.764569 -1.546532 1.075 
152 680 -5.486651 -0.736456 1.795 
168 680 -6.515093 -1.122416 2.020 
184 680 -7.255120 -1.759543 1.408 
200 680 -7.615771 -2.392614 1.916 
216 680 -7.578858 -2.014609 1.952 
232 680 -7.792982 -2.062061 2.322 
248 680 -8.697194 -2.419261 1.969 
264 680 -9.848308 -2.230254 1.935 
280 680 -10.039950 -1.381111 3.894 
296 680 -8.905244 -0.917621 1.816 
312 680 -7.734808 -0.908059 1.114 
328 680 -8.002247 -1.371995 4.421 
344 680 -8.091000 -1.421087 2.525 
360 680 -7.966943 -1.464513 1.917 
376 680 -8.042946 -1.692895 1.582 
392 680 -8.780192 -2.112046 1.908 
408 680 -9.140048 -1.953585 7.003 
424 680 -9.110644 -1.675350 5.689 
440 680 -8.585682 -1.536952 2.621 
456 680 -7.982732 -1.471117 2.882 
472 680 -7.637196 -1.503110 1.906 
488 680 -7.721085 -1.869486 2.481 
504 680 -7.688014 -1.802682 2.080 
520 680 -7.260013 -1.770096 2.102 
536 680 -6.845034 -1.960336 2.931 
552 680 -6.594135 -2.072825 3.206 
568 680 -6.319521 -1.933407 1.907 
584 680 -6.368598 -0.591216 1.697 
600 680 -6.233245 -0.704062 3.506 
616 680 -6.472309 -1.031476 2.981 
632 680 -7.218196 -1.394510 2.420 
648 680 -7.673242 -1.502815 5.553 
664 680 -7.934929 -1.538570 3.788 
680 680 -8.218408 -1.953371 2.275 
696 680 -8.351703 -2.557541 1.970 
712 680 -9.348163 -2.777504 2.839 
728 680 -9.626570 -2.527076 1.167 
744 680 -8.926889 -2.563754 2.857 
760 680 -9.382233 -2.792978 3.688 
776 680 -9.657344 -3.497312 1.563 
792 680 -8.893677 -3.266571 1.513 
808 680 -9.015235 -2.258877 2.970 
824 680 -8.958226 -0.991107 2.478 
840 680 -8.560030 0.105202 2.390 
856 680 -7.833180 -0.321205 2.234 
872 680 -7.296281 -0.708262 2.535 
888 680 -6.354513 -0.742402 2.367 
904 680 -6.036385 -1.372314 2.684 
920 680 -5.772176 -1.212512 2.350 
936 680 -5.525155 -0.690972 2.525 
952 680 -5.140747 -0.115940 2.036 
968 680 -5.352327 -0.036498 2.607 
984 680 -5.451520 -0.047709 4.980 
1000 680 -5.361953 -0.239626 2.190 
1016 680 -5.091033 -2.520169 1.525 
1032 680 -5.721606 -5.321940 2.025 
1048 680 -6.753770 -5.001010 3.213 
1064 680 -6.944313 -3.152914 2.880 
1080 680 -7.237308 -2.611141 1.596 
1096 680 -7.052457 -2.577727 2.256 
1112 680 -6.735535 -2.769108 2.069 
1128 680 -6.220271 -3.181312 3.546 
1144 680 -5.945751 -2.938496 2.479 
1160 680 -6.027299 -2.258308 2.721 
1176 680 -5.927910 -2.670644 1.598 
1192 680 -7.658208 -3.277100 1.325 
1208 680 -10.990659 -2.504046 1.438 
1224 680 -24.824750 -5.244594 1.014 
1240 680 -31.960910 -8.660281 1.014 
1256 680 -39.097071 -12.075967 1.211 
1272 680 -36.083600 -4.136419 1.197 
8 664 -18.336731 17.552559 1.358 
24 664 -22.984474 18.492927 1.325 
40 664 -18.130686 6.892556 1.007 
56 664 -13.202429 3.262094 1.138 
72 664 -3.452466 0.495701 1.132 
88 664 -0.805714 0.760602 1.494 
104 664 -0.846336 -0.966585 1.217 
120 664 -4.821634 -1.336792 1.757 
136 664 -4.835394 -1.681747 1.592 
152 664 -5.454371 -1.129769 2.286 
168 664 -6.743162 -1.016158 2.289 
184 664 -7.643320 -1.439445 2.721 
200 664 -7.968531 -1.988836 1.702 
216 664 -7.731410 -1.841524 2.184 
232 664 -7.940585 -2.093401 1.959 
248 664 -8.593646 -2.501043 1.467 
264 664 -10.031864 -2.440623 1.124 
280 664 -10.555924 -1.756778 1.176 
296 664 -9.119740 -0.925908 1.026 
312 664 -7.703313 -1.104155 1.580 
328 664 -7.602840 -1.222168 3.075 
344 664 -7.263378 -1.288531 2.449 
360 664 -7.390730 -1.664884 1.833 
376 664 -7.862336 -2.077772 2.726 
392 664 -8.669861 -2.468418 1.031 
408 664 -9.218489 -2.603101 7.614 
424 664 -9.291607 -2.466937 4.311 
440 664 -8.705009 -2.495126 2.404 
456 664 -8.033485 -2.381625 2.418 
472 664 -7.859512 -2.466493 2.103 
488 664 -7.806026 -2.268792 2.164 
504 664 -7.484166 -2.272176 1.995 
520 664 -7.183649 -2.337986 1.679 
536 664 -7.180350 -2.029281 2.401 
552 664 -7.014098 -1.557255 2.928 
568 664 -6.477594 -0.744325 3.785 
584 664 -6.570395 -0.136106 2.989 
600 664 -6.469609 -0.872457 2.229 
616 664 -6.902196 -1.704398 2.177 
632 664 -7.474905 -2.031510 2.993 
648 664 -8.210150 -1.958214 2.682 
664 664 -8.363131 -2.042718 3.427 
680 664 -8.489245 -2.448987 2.338 
696 664 -8.174132 -3.166446 2.510 
712 664 -8.566289 -3.194749 2.372 
728 664 -8.995681 -3.333807 2.049 
744 664 -8.567100 -3.083936 2.994 
760 664 -8.439930 -3.109642 3.242 
776 664 -8.680707 -3.679140 2.244 
792 664 -8.194062 -3.281409 2.269 
808 664 -7.756326 -1.845180 2.344 
824 664 -7.504469 -0.439704 1.870 
840 664 -7.281263 0.389185 2.515 
856 664 -6.761995 0.095878 2.872 
872 664 -5.825344 0.051852 1.965 
888 664 -5.818591 -0.080168 1.177 
904 664 -5.912680 -0.997978 2.365 
920 664 -5.831667 -1.213665 2.302 
936 664 -5.647616 -1.186347 2.002 
952 664 -5.408863 -1.382689 1.094 
968 664 -6.020680 -0.678563 2.073 
984 664 -6.624618 0.053126 1.551 
1000 664 -7.020827 -0.470854 1.417 
1016 664 -6.950095 -3.055598 1.925 
1032 664 -6.787655 -5.376699 1.674 
1048 664 -6.958032 -4.886344 2.407 
1064 664 -7.326917 -3.095758 5.259 
1080 664 -7.417930 -2.671770 4.594 
1096 664 -7.021663 -2.856851 1.313 
1112 664 -6.644589 -2.986234 1.949 
1128 664 -6.031458 -3.131203 2.411 
1144 664 -5.755959 -2.713511 5.403 
1160 664 -6.110964 -1.495797 3.887 
1176 664 -6.619597 -1.391986 1.350 
1192 664 -7.543698 -1.909399 1.115 
1208 664 -12.099215 -2.840374 1.183 
1224 664 -21.338673 -0.778972 1.200 
1240 664 -38.189071 -5.392597 1.098 
1256 664 -38.797557 -12.304024 1.059 
1272 664 -35.617179 -5.047939 1.103 
8 648 -13.749132 17.624498 1.066 
24 648 -15.120382 15.076571 1.081 
40 648 -12.816290 8.424971 1.097 
56 648 -7.060139 1.015247 1.260 
72 648 -2.891941 0.588469 1.365 
88 648 -1.502963 0.687344 1.302 
104 648 -5.143742 0.130286 1.048 
120 648 -6.263462 -1.251326 1.455 
136 648 -5.749235 -1.282776 2.228 
152 648 -5.976343 -1.038064 2.575 
168 648 -7.010519 -1.194702 1.661 
184 648 -7.895807 -1.739845 1.024 
200 648 -7.978373 -1.782093 1.035 
216 648 -8.060940 -1.824341 2.584 
232 648 -7.524033 -2.117211 1.200 
248 648 -7.995807 -2.476895 1.324 
264 648 -9.051151 -2.235865 1.353 
280 648 -9.723622 -1.814224 1.086 
296 648 -8.728993 -0.385123 1.134 
312 648 -7.591863 -1.093145 2.066 
328 648 -7.203433 -1.072340 3.216 
344 648 -6.992665 -1.312599 2.017 
360 648 -6.781897 -1.552857 1.112 
376 648 -7.532985 -2.405053 2.305 
392 648 -8.304582 -2.647833 1.275 
408 648 -8.938382 -2.758096 2.648 
424 648 -9.247489 -2.772862 2.962 
440 648 -8.701928 -2.841443 2.436 
456 648 -8.245020 -3.094453 2.471 
472 648 -8.139624 -3.010671 1.831 
488 648 -8.133769 -2.694809 1.688 
504 648 -7.500359 -2.582722 1.532 
520 648 -7.352361 -2.728180 2.126 
536 648 -7.597813 -2.050838 3.746 
552 648 -7.434060 -1.041685 2.616 
568 648 -6.845304 -0.197408 2.429 
584 648 -6.449029 -0.409202 2.101 
600 648 -6.820420 -1.279501 2.207 
616 648 -7.045249 -2.181204 1.642 
632 648 -7.419754 -2.571272 2.215 
648 648 -8.190861 -2.329961 1.784 
664 648 -8.724179 -2.552083 3.102 
680 648 -8.432414 -3.083934 3.821 
696 648 -8.184760 -3.621129 2.428 
712 648 -8.754810 -3.766201 2.426 
728 648 -9.180044 -3.705836 3.174 
744 648 -8.800100 -3.363655 3.484 
760 648 -8.622793 -3.335102 3.556 
776 648 -8.352878 -3.495650 2.100 
792 648 -7.809057 -3.310473 1.750 
808 648 -6.708669 -1.668527 1.834 
824 648 -6.296361 -0.138074 1.964 
840 648 -6.300285 0.579743 1.730 
856 648 -6.118984 0.732189 3.526 
872 648 -5.722537 0.618114 2.885 
888 648 -5.688307 0.371077 1.849 
904 648 -6.199742 -0.667551 2.672 
920 648 -6.633903 -1.161546 2.566 
936 648 -6.235710 -1.671355 2.286 
952 648 -6.056349 -1.752020 1.196 
968 648 -6.463328 -1.271977 1.878 
984 648 -7.661206 -0.599907 2.172 
1000 648 -8.206139 -0.856722 1.808 
1016 648 -8.008065 -2.568222 2.887 
1032 648 -7.624324 -4.086051 2.172 
1048 648 -7.381454 -3.849305 3.619 
1064 648 -7.411538 -3.058434 4.483 
1080 648 -7.249178 -2.878877 6.216 
1096 648 -6.859823 -3.264549 2.332 
1112 648 -6.878499 -3.260223 1.669 
1128 648 -6.368017 -3.187634 2.083 
1144 648 -6.172494 -2.480590 4.483 
1160 648 -6.178256 -1.654828 3.194 
1176 648 -6.752092 -1.346550 3.728 
1192 648 -7.783411 -1.857629 2.183 
1208 648 -11.248550 -2.788407 1.027 
1224 648 -19.680310 -1.624888 1.120 
1240 648 -31.813836 -1.407867 1.138 
1256 648 -34.212274 -11.189564 1.237 
1272 648 -35.150759 -5.959458 1.225 
8 632 -6.882585 9.106747 1.176 
24 632 -9.457441 8.454943 1.186 
40 632 0.078624 3.094422 1.184 
56 632 -1.313084 -2.982768 1.054 
72 632 -1.834732 -1.542673 1.193 
88 632 -3.297897 0.207871 1.013 
104 632 -6.621236 0.148653 1.085 
120 632 -7.507183 -0.260587 1.252 
136 632 -7.235157 -0.404682 2.457 
152 632 -6.807083 -0.703490 1.374 
168 632 -7.296433 -1.106367 1.754 
184 632 -7.910486 -1.940632 1.717 
200 632 -7.999326 -2.111580 1.884 
216 632 -8.088166 -2.282528 3.808 
232 632 -7.683549 -2.466429 1.552 
248 632 -7.397969 -2.452747 1.269 
264 632 -8.020359 -1.913916 1.171 
280 632 -8.642749 -1.375085 1.178 
296 632 -7.975351 -0.376827 1.390 
312 632 -7.459101 -0.888445 1.357 
328 632 -7.304707 -0.521883 2.283 
344 632 -6.817293 -1.098497 2.363 
360 632 -6.329879 -1.675111 2.450 
376 632 -7.375886 -2.401276 1.030 
392 632 -7.885199 -2.624702 1.551 
408 632 -8.487880 -2.511074 1.770 
424 632 -8.849999 -2.612853 2.198 
440 632 -8.608796 -2.772224 1.859 
456 632 -8.268445 -3.145411 2.953 
472 632 -8.187526 -3.169562 3.231 
488 632 -8.046811 -2.967770 1.865 
504 632 -7.885707 -2.729771 1.971 
520 632 -8.182219 -2.924006 1.393 
536 632 -8.034854 -2.500042 1.141 
552 632 -7.558296 -0.888631 2.831 
568 632 -7.107193 -0.248730 3.411 
584 632 -6.388984 -0.544089 2.483 
600 632 -6.500794 -0.827502 1.418 
616 632 -6.812114 -1.891125 2.231 
632 632 -7.063401 -2.380160 2.450 
648 632 -7.735265 -2.578450 2.739 
664 632 -8.311398 -3.061657 4.117 
680 632 -8.857077 -3.701053 5.400 
696 632 -8.940378 -4.016473 6.094 
712 632 -8.841340 -4.157163 3.159 
728 632 -8.994052 -3.998278 2.929 
744 632 -9.146764 -3.839393 2.108 
760 632 -8.433184 -3.284463 2.255 
776 632 -8.025050 -3.312160 2.941 
792 632 -7.141116 -2.566122 2.105 
808 632 -6.430198 -1.519935 2.654 
824 632 -6.025536 0.274148 1.947 
840 632 -6.124063 1.059658 1.793 