TITLE = "B00190"
VARIABLES = "x", "y", "u", "v", "sn"
ZONE T="Frame 0", I=80, J=50
8 792 0.000000 -0.000000 1.309 
24 792 0.000000 -0.000000 1.275 
40 792 7.017858 5.089541 1.254 
56 792 8.075210 2.992617 1.174 
72 792 6.437239 2.783379 1.005 
88 792 4.799268 2.574142 1.012 
104 792 3.161296 2.364904 1.196 
120 792 1.523325 2.155666 1.263 
136 792 -0.114646 1.946429 1.046 
152 792 -1.752617 1.737191 1.423 
168 792 -3.390588 1.527954 1.730 
184 792 -5.150981 1.737683 3.256 
200 792 -5.792369 1.641721 5.890 
216 792 -6.820747 1.453999 5.038 
232 792 -7.312119 1.159088 1.258 
248 792 -6.532321 0.740392 1.294 
264 792 -6.472024 0.896658 1.467 
280 792 -6.605159 1.078328 3.225 
296 792 -7.043447 0.980157 1.398 
312 792 -7.062220 0.856385 3.234 
328 792 -6.778270 0.897671 1.939 
344 792 -6.711541 1.122573 2.815 
360 792 -6.881026 1.117524 1.883 
376 792 -7.021221 0.915821 1.356 
392 792 -6.960566 0.717241 1.371 
408 792 -6.507412 0.728376 1.372 
424 792 -6.424566 0.672635 1.972 
440 792 -6.450078 0.633785 3.160 
456 792 -6.572725 0.315232 1.474 
472 792 -6.529452 0.365625 3.011 
488 792 -6.250590 0.599627 3.032 
504 792 -6.049020 0.779438 3.336 
520 792 -5.990372 0.890154 1.402 
536 792 -6.080285 0.683359 1.260 
552 792 -5.872073 0.421806 3.116 
568 792 -5.542599 0.189092 2.005 
584 792 -5.459966 0.074368 2.643 
600 792 -5.499322 -0.027229 1.397 
616 792 -5.499057 -0.029682 1.765 
632 792 -5.484147 0.451200 2.096 
648 792 -5.469237 0.932081 2.011 
664 792 -5.991232 0.726549 3.334 
680 792 -6.147355 0.808624 2.449 
696 792 -5.973321 0.800137 1.733 
712 792 -6.053394 0.503738 2.202 
728 792 -5.955389 0.509400 7.215 
744 792 -5.545758 0.711933 9.492 
760 792 -5.202110 0.623576 2.361 
776 792 -5.111645 0.778026 1.881 
792 792 -5.655586 1.308605 1.355 
808 792 -5.722637 1.183736 1.693 
824 792 -5.501167 0.696274 3.953 
840 792 -5.477961 0.226348 2.814 
856 792 -5.632205 0.113192 2.359 
872 792 -5.777299 0.465476 2.741 
888 792 -5.962925 0.785175 1.511 
904 792 -5.904226 0.541314 1.257 
920 792 -5.717659 0.160715 2.352 
936 792 -5.626782 0.071799 3.734 
952 792 -5.403433 0.068624 2.016 
968 792 -5.458648 0.574342 1.635 
984 792 -5.776668 0.879710 1.613 
1000 792 -6.067630 0.435767 1.568 
1016 792 -5.804137 0.190989 1.145 
1032 792 -5.272272 0.179957 1.617 
1048 792 -4.765840 0.611332 2.122 
1064 792 -4.823250 0.555559 3.708 
1080 792 -4.880660 0.499786 2.341 
1096 792 -5.656283 -0.460633 1.569 
1112 792 -6.671378 -0.224894 1.142 
1128 792 -7.241210 1.396046 1.183 
1144 792 -7.811041 3.016986 1.045 
1160 792 -8.380873 4.637926 1.059 
1176 792 -8.950704 6.258866 1.018 
1192 792 -8.254144 3.866058 1.092 
1208 792 -7.557583 1.473250 1.361 
1224 792 -6.861023 -0.919559 1.205 
1240 792 -7.328537 -4.561781 1.231 
1256 792 0.000000 -0.000000 1.086 
1272 792 0.000000 -0.000000 1.016 
8 776 4.469358 4.902360 1.053 
24 776 4.568231 5.183924 1.059 
40 776 4.667104 5.465488 1.209 
56 776 2.628201 2.140093 1.134 
72 776 2.691049 -1.784524 1.001 
88 776 1.383187 -5.598278 1.026 
104 776 -1.356096 -8.166164 1.235 
120 776 -2.449661 -8.492105 1.233 
136 776 -1.464624 -5.582635 1.005 
152 776 -0.469702 -1.171198 1.391 
168 776 -4.780087 1.281298 1.798 
184 776 -6.055401 1.793945 3.354 
200 776 -6.339767 1.693461 6.016 
216 776 -6.825581 1.490474 5.376 
232 776 -6.981739 1.174243 1.276 
248 776 -6.447207 0.885780 1.423 
264 776 -6.353324 0.925784 1.496 
280 776 -6.455609 1.017902 3.216 
296 776 -6.864943 0.921334 1.402 
312 776 -6.885522 0.816292 3.177 
328 776 -6.663448 0.871845 1.919 
344 776 -6.651541 1.074208 2.841 
360 776 -6.790062 1.120297 2.044 
376 776 -6.933143 0.997957 1.309 
392 776 -6.945793 0.830650 1.342 
408 776 -6.500698 0.824484 1.374 
424 776 -6.378669 0.758359 2.144 
440 776 -6.386682 0.703416 3.350 
456 776 -6.494821 0.354697 1.466 
472 776 -6.437624 0.401432 3.029 
488 776 -6.191392 0.572701 2.961 
504 776 -6.054348 0.721209 3.371 
520 776 -6.032784 0.822393 1.417 
536 776 -6.132084 0.639415 1.304 
552 776 -5.923600 0.436053 3.093 
568 776 -5.592816 0.253481 1.946 
584 776 -5.495636 0.156333 2.797 
600 776 -5.498320 0.073828 1.426 
616 776 -5.492838 0.067813 1.810 
632 776 -5.227221 0.688902 2.127 
648 776 -5.467700 0.884096 2.027 
664 776 -5.961235 0.655767 3.344 
680 776 -6.102015 0.747596 2.187 
696 776 -5.965276 0.784846 1.780 
712 776 -6.085469 0.535398 2.308 
728 776 -6.012953 0.565543 7.086 
744 776 -5.605029 0.775371 9.481 
760 776 -5.261632 0.711863 1.978 
776 776 -5.139381 0.799756 1.525 
792 776 -5.552837 1.239542 1.185 
808 776 -5.630035 1.109495 1.691 
824 776 -5.421895 0.697943 4.000 
840 776 -5.350179 0.281428 2.861 
856 776 -5.433936 0.196134 2.427 
872 776 -5.596036 0.574215 2.550 
888 776 -5.789048 0.926971 1.854 
904 776 -5.757162 0.699411 1.174 
920 776 -5.766347 0.393923 2.286 
936 776 -5.800372 0.358478 3.588 
952 776 -5.641547 0.340571 2.051 
968 776 -5.560938 0.717163 1.617 
984 776 -5.881271 0.927050 1.680 
1000 776 -6.076220 0.456670 1.659 
1016 776 -5.767674 0.242320 1.162 
1032 776 -5.175012 0.246231 1.559 
1048 776 -4.679385 0.634371 2.245 
1064 776 -4.703467 0.622607 3.928 
1080 776 -4.727549 0.610844 2.319 
1096 776 -5.391362 -0.239067 1.576 
1112 776 -6.389126 -0.535324 1.195 
1128 776 -7.159580 0.020532 1.165 
1144 776 -7.054272 0.892659 1.060 
1160 776 -8.159928 1.844621 1.013 
1176 776 -9.088176 1.291291 1.099 
1192 776 -5.091053 3.532135 1.046 
1208 776 -5.667004 0.738059 1.304 
1224 776 -6.242954 -2.056018 1.256 
1240 776 -6.854643 -5.998808 1.199 
1256 776 8.595047 -4.456051 1.136 
1272 776 0.000000 -0.000000 1.013 
8 760 8.187284 4.340623 1.169 
24 760 8.512691 4.872815 1.207 
40 760 4.843439 2.763352 1.014 
56 760 -2.687402 0.453672 1.406 
72 760 -3.535861 -2.855696 1.325 
88 760 -6.232667 -7.196169 1.029 
104 760 -6.339651 -7.072476 1.064 
120 760 -8.864242 -7.231129 1.058 
136 760 -6.497153 -4.121004 1.053 
152 760 -4.784365 -0.284412 1.891 
168 760 -6.202347 1.666168 2.037 
184 760 -6.932571 1.899553 9.432 
200 760 -6.682763 1.695689 6.712 
216 760 -6.780988 1.461852 3.461 
232 760 -6.651360 1.189397 1.739 
248 760 -6.354777 0.967012 1.849 
264 760 -6.315430 0.907379 3.057 
280 760 -6.364837 0.846588 3.320 
296 760 -6.602781 0.802105 4.769 
312 760 -6.559343 0.720157 2.577 
328 760 -6.560571 0.722901 2.756 
344 760 -6.523092 0.947997 1.665 
360 760 -6.548788 1.087720 2.088 
376 760 -7.031612 1.047494 1.336 
392 760 -6.827591 1.093138 1.257 
408 760 -6.531711 1.030335 1.180 
424 760 -6.298294 0.816006 1.942 
440 760 -6.254017 0.635929 3.388 
456 760 -6.244283 0.479797 3.065 
472 760 -6.166481 0.436126 2.211 
488 760 -6.066018 0.424650 2.994 
504 760 -6.038301 0.659240 3.800 
520 760 -6.110933 0.711129 1.883 
536 760 -6.240050 0.782972 3.441 
552 760 -6.017402 0.617622 6.387 
568 760 -5.572869 0.431995 3.364 
584 760 -5.532201 0.278321 3.118 
600 760 -5.474187 0.227386 2.680 
616 760 -5.243557 0.295358 2.753 
632 760 -5.110640 0.757825 2.083 
648 760 -5.280230 0.785668 2.713 
664 760 -5.740987 0.597593 3.819 
680 760 -5.937012 0.597053 1.588 
696 760 -5.979348 0.640174 2.575 
712 760 -6.163366 0.548374 2.497 
728 760 -6.094479 0.725409 3.468 
744 760 -5.722770 0.927237 3.902 
760 760 -5.461950 1.008524 4.728 
776 760 -5.345288 1.090049 2.003 
792 760 -5.374260 1.162079 1.110 
808 760 -5.423541 1.032058 1.401 
824 760 -5.368004 0.734376 4.417 
840 760 -5.133724 0.503214 2.930 
856 760 -5.103317 0.429120 2.608 
872 760 -4.950992 0.904599 1.132 
888 760 -5.170159 1.264791 1.747 
904 760 -5.608197 1.054666 2.571 
920 760 -6.089684 0.646638 2.079 
936 760 -6.096482 0.766497 2.131 
952 760 -6.030150 0.752798 1.962 
968 760 -5.931837 0.873160 1.484 
984 760 -6.041761 0.908259 1.256 
1000 760 -6.138590 0.577678 1.611 
1016 760 -5.738662 0.352423 3.095 
1032 760 -5.159002 0.310620 2.228 
1048 760 -4.610879 0.593661 5.645 
1064 760 -4.619115 0.659018 2.042 
1080 760 -4.627351 0.724376 1.494 
1096 760 -5.213555 0.111900 1.465 
1112 760 -5.951542 -0.175007 1.998 
1128 760 -5.180935 -0.300788 2.092 
1144 760 -6.030561 0.834086 1.213 
1160 760 -7.447076 0.310051 1.315 
1176 760 -9.096871 0.561591 1.080 
1192 760 -7.549018 1.346713 1.279 
1208 760 -6.561960 0.608876 1.321 
1224 760 -5.574902 -0.128960 1.032 
1240 760 -0.541724 -1.624627 1.028 
1256 760 4.491454 -3.120293 1.017 
1272 760 6.835586 -2.856188 1.052 
8 744 10.347227 6.835566 1.045 
24 744 11.337246 2.355122 1.044 
40 744 6.433615 -1.045819 1.042 
56 744 -2.090131 -2.089301 1.286 
72 744 -4.074299 -0.073372 1.121 
88 744 -10.790057 -6.782310 1.008 
104 744 -11.323205 -5.978789 1.532 
120 744 -8.067316 -2.435735 1.016 
136 744 -7.049464 -0.968216 1.010 
152 744 -6.545803 1.357750 1.848 
168 744 -7.178561 2.103893 2.443 
184 744 -7.302382 1.735347 3.345 
200 744 -6.989504 1.436513 2.303 
216 744 -6.863966 1.271509 1.879 
232 744 -6.641448 1.242520 2.198 
248 744 -6.462835 1.043368 2.091 
264 744 -6.277536 0.888974 8.106 
280 744 -6.412284 0.847095 13.347 
296 744 -6.510174 0.774036 5.656 
312 744 -6.390562 0.747722 2.292 
328 744 -6.411763 0.715424 1.996 
344 744 -6.491509 0.771063 2.609 
360 744 -6.360040 0.838714 2.610 
376 744 -6.687402 1.175031 2.089 
392 744 -6.774683 1.142716 1.057 
408 744 -6.528222 0.981259 3.101 
424 744 -6.107663 0.810153 1.675 
440 744 -6.165423 0.478803 1.828 
456 744 -6.130867 0.383573 2.804 
472 744 -6.031511 0.434256 1.732 
488 744 -6.063755 0.578240 2.432 
504 744 -6.001533 0.563624 1.614 
520 744 -6.091881 0.794620 3.665 
536 744 -6.156435 0.744212 4.716 
552 744 -5.977704 0.604554 5.905 
568 744 -5.734942 0.646500 2.622 
584 744 -5.591885 0.473785 3.074 
600 744 -5.448271 0.433287 2.759 
616 744 -5.190911 0.392649 1.612 
632 744 -4.995125 0.519875 4.350 
648 744 -5.131252 0.453892 2.950 
664 744 -5.442721 0.307505 5.149 
680 744 -5.578994 0.475558 2.055 
696 744 -5.710910 0.727310 1.993 
712 744 -6.054284 0.760954 3.050 
728 744 -6.114037 0.833996 1.103 
744 744 -5.798093 0.981941 1.256 
760 744 -5.489060 1.057509 5.324 
776 744 -5.328080 1.111332 7.552 
792 744 -5.300560 1.236980 1.182 
808 744 -5.282682 1.180615 1.966 
824 744 -5.097008 0.881377 2.798 
840 744 -4.905967 0.627791 2.053 
856 744 -4.898408 0.544449 2.341 
872 744 -4.824815 0.954305 2.170 
888 744 -5.092402 1.205103 3.392 
904 744 -5.310204 1.021052 2.451 
920 744 -5.620346 0.797217 2.029 
936 744 -5.941159 0.884919 1.189 
952 744 -5.886655 1.003242 1.763 
968 744 -5.652044 0.783072 2.093 
984 744 -6.005851 0.721794 1.127 
1000 744 -6.042772 0.484763 1.363 
1016 744 -5.647460 0.403988 2.028 
1032 744 -5.327392 0.302969 2.241 
1048 744 -5.001189 0.361205 3.324 
1064 744 -5.260334 0.837383 1.649 
1080 744 -4.938359 0.715740 1.239 
1096 744 -5.001267 0.396156 1.054 
1112 744 -5.513958 0.185311 2.967 
1128 744 -5.324768 0.301548 2.109 
1144 744 -5.006850 0.775512 1.737 
1160 744 -5.116013 0.157920 1.668 
1176 744 -7.907025 0.564211 1.137 
1192 744 -8.528604 1.159918 1.222 
1208 744 -6.491730 3.064933 1.064 
1224 744 -5.063847 3.468059 1.077 
1240 744 -2.239777 2.044420 1.061 
1256 744 0.584293 0.620782 1.120 
1272 744 2.589634 -0.482328 1.175 
8 728 12.507171 9.330510 1.181 
24 728 13.704865 4.383925 1.131 
40 728 7.243522 -5.023245 1.059 
56 728 0.083564 0.535567 1.345 
72 728 -4.612737 2.708951 1.215 
88 728 -8.101180 -0.610212 1.034 
104 728 -9.507214 -2.465347 1.016 
120 728 -7.270391 2.359660 1.469 
136 728 -7.601774 2.184572 1.184 
152 728 -7.696378 1.978102 2.382 
168 728 -7.316244 1.921858 2.271 
184 728 -7.114832 1.577973 1.778 
200 728 -7.072976 1.406054 1.344 
216 728 -7.027922 1.383152 1.696 
232 728 -7.092906 1.310429 3.400 
248 728 -7.070870 1.137241 1.931 
264 728 -6.650402 1.024266 5.732 
280 728 -6.674313 0.894738 7.829 
296 728 -6.647827 0.960056 3.593 
312 728 -6.487809 0.854926 1.664 
328 728 -6.458021 0.770676 1.028 
344 728 -6.395719 0.868575 3.085 
360 728 -6.554938 0.887393 2.074 
376 728 -6.890595 0.915574 5.173 
392 728 -6.696426 1.109269 2.097 
408 728 -6.351169 0.822676 2.984 
424 728 -6.141352 0.596804 1.095 
440 728 -6.080347 0.389868 1.061 
456 728 -6.066266 0.363866 2.147 
472 728 -6.060737 0.451430 2.451 
488 728 -6.049433 0.515736 3.045 
504 728 -5.980141 0.580728 1.089 
520 728 -5.981188 0.632373 1.599 
536 728 -6.090722 0.606727 2.153 
552 728 -5.890340 0.440601 3.108 
568 728 -5.396094 0.517552 1.744 
584 728 -5.275665 0.398089 2.254 
600 728 -5.232697 0.264492 3.114 
616 728 -5.340066 0.236234 2.902 
632 728 -5.303871 0.431399 2.713 
648 728 -5.162285 0.255723 2.715 
664 728 -5.334091 0.237438 1.818 
680 728 -5.313944 0.282327 2.512 
696 728 -5.340491 0.359843 3.891 
712 728 -5.903427 0.670468 5.204 
728 728 -5.962182 0.832021 1.919 
744 728 -5.737576 0.921074 1.225 
760 728 -5.323206 0.766741 2.992 
776 728 -5.168340 0.778004 3.197 
792 728 -5.051841 1.044308 2.890 
808 728 -5.090037 1.258460 2.745 
824 728 -5.002159 0.970270 2.025 
840 728 -4.903775 0.649193 1.790 
856 728 -4.862339 0.568480 1.498 
872 728 -5.078766 0.743520 2.306 
888 728 -5.444733 0.822396 1.481 
904 728 -5.500138 0.792996 1.527 
920 728 -5.563055 0.829340 2.222 
936 728 -5.785836 1.003341 2.821 
952 728 -5.585187 0.879941 1.045 
968 728 -5.372251 0.692984 1.942 
984 728 -5.896519 0.351954 1.128 
1000 728 -5.888951 0.219948 1.545 
1016 728 -5.614772 0.177519 1.837 
1032 728 -5.459589 -0.016445 3.635 
1048 728 -5.306959 -0.028962 1.666 
1064 728 -5.160734 0.668829 1.736 
1080 728 -5.047083 0.511268 2.609 
1096 728 -4.819004 0.553502 5.214 
1112 728 -5.258842 0.532884 3.196 
1128 728 -5.468601 0.903883 1.685 
1144 728 -5.146599 1.248473 1.158 
1160 728 -4.957613 0.877363 1.115 
1176 728 -7.232902 0.925243 1.014 
1192 728 -9.508190 0.973123 1.061 
1208 728 -7.045660 2.771370 1.339 
1224 728 -4.185061 3.065512 1.071 
1240 728 -4.252318 2.137526 1.521 
1256 728 -3.038819 1.488056 1.609 
1272 728 -0.821200 0.834834 1.035 
8 712 14.667114 11.825453 1.295 
24 712 14.106964 8.075231 1.347 
40 712 8.358803 8.368162 1.171 
56 712 2.610642 8.661094 1.567 
72 712 0.118266 10.405037 1.142 
88 712 -8.410576 8.141998 1.254 
104 712 -7.646981 5.785564 1.105 
120 712 -6.883387 3.429130 1.127 
136 712 -7.134267 2.935265 1.156 
152 712 -7.330749 2.002562 1.066 
168 712 -7.246622 1.984712 1.269 
184 712 -7.486194 1.775415 1.055 
200 712 -7.371019 1.616500 1.622 
216 712 -7.054097 1.534462 3.001 
232 712 -7.183490 1.378740 2.001 
248 712 -7.110278 1.275307 1.126 
264 712 -6.798426 1.277443 2.413 
280 712 -6.748716 0.967376 1.189 
296 712 -6.780489 0.904938 2.765 
312 712 -6.657279 0.834447 2.745 
328 712 -6.691599 0.757214 3.108 
344 712 -6.414766 0.794574 1.887 
360 712 -6.425276 0.815364 1.755 
376 712 -6.609757 1.038486 3.354 
392 712 -6.563294 1.006490 1.867 
408 712 -6.328779 0.638784 2.176 
424 712 -6.165202 0.450779 1.341 
440 712 -6.018915 0.360486 1.835 
456 712 -6.001666 0.344160 2.884 
472 712 -5.976310 0.491946 1.357 
488 712 -5.993880 0.460016 1.893 
504 712 -5.935799 0.517965 1.285 
520 712 -5.922176 0.516968 1.130 
536 712 -6.118604 0.581686 1.303 
552 712 -5.793556 0.261728 1.521 
568 712 -5.288419 0.331904 1.916 
584 712 -4.784155 0.331648 2.564 
600 712 -5.029216 0.447220 2.753 
616 712 -5.010671 0.321211 2.956 
632 712 -5.306688 0.538884 2.280 
648 712 -5.194869 0.538523 2.799 
664 712 -5.236084 0.350648 2.749 
680 712 -5.168843 0.243156 3.089 
696 712 -5.333831 0.353921 3.376 
712 712 -5.647236 0.567622 6.006 
728 712 -5.671025 0.722726 6.747 
744 712 -5.463627 0.754410 4.779 
760 712 -5.100666 0.634657 5.115 
776 712 -4.931261 0.627390 4.153 
792 712 -5.047724 0.886772 2.428 
808 712 -4.970517 0.810814 2.480 
824 712 -5.006119 0.588615 2.185 
840 712 -5.131926 0.528406 2.000 
856 712 -4.985511 0.527329 2.449 
872 712 -5.251234 0.619512 2.351 
888 712 -5.607502 0.626992 1.395 
904 712 -5.647638 0.664678 1.939 
920 712 -5.598169 0.786658 3.045 
936 712 -5.617386 0.772881 4.123 
952 712 -5.741391 0.385149 1.637 
968 712 -5.663390 0.042960 2.604 
984 712 -5.773312 -0.001979 2.069 
1000 712 -5.675245 -0.015747 1.694 
1016 712 -5.594654 0.018175 3.236 
1032 712 -5.570514 -0.187043 2.473 
1048 712 -5.214276 0.091986 1.871 
1064 712 -4.859752 0.518116 2.085 
1080 712 -4.797143 0.430016 2.531 
1096 712 -4.685264 0.420478 2.152 
1112 712 -5.260773 0.428428 1.373 
1128 712 -5.355934 0.714370 1.237 
1144 712 -4.923136 1.011109 1.901 
1160 712 -5.014902 1.111401 1.123 
1176 712 -6.272915 0.853337 1.165 
1192 712 -7.550666 0.983708 1.017 
1208 712 -4.537911 2.341286 1.381 
1224 712 -3.306275 2.662964 1.274 
1240 712 -4.654288 1.456462 1.124 
1256 712 -2.101897 -1.217646 1.336 
1272 712 -0.721617 -1.676499 1.418 
8 696 16.827057 14.320397 1.075 
24 696 12.370135 12.802633 1.151 
40 696 4.880222 9.167561 1.373 
56 696 -2.609692 5.532490 1.047 
72 696 -4.343735 9.465028 1.009 
88 696 -8.818504 7.148317 1.198 
104 696 -7.810410 5.303967 1.124 
120 696 -6.802315 3.459616 1.183 
136 696 -6.967270 2.404863 1.554 
152 696 -7.064878 1.419197 1.128 
168 696 -7.241640 2.046357 1.470 
184 696 -7.611115 1.806356 2.253 
200 696 -7.350738 1.562782 1.190 
216 696 -6.931651 1.350438 2.088 
232 696 -6.732340 1.167183 2.062 
248 696 -6.360783 1.282656 1.900 
264 696 -6.367624 1.403668 1.465 
280 696 -6.734766 0.952421 1.739 
296 696 -6.732630 0.782258 2.994 
312 696 -6.553300 0.771992 2.708 
328 696 -6.430938 0.786140 2.814 
344 696 -6.254004 0.560627 2.894 
360 696 -6.428673 0.652640 2.005 
376 696 -6.215244 0.752867 1.010 
392 696 -6.279285 0.885580 2.811 
408 696 -6.164571 0.542606 1.330 
424 696 -6.244267 0.518028 1.530 
440 696 -6.061502 0.498595 1.480 
456 696 -5.950328 0.407843 1.153 
472 696 -5.940672 0.517765 1.454 
488 696 -5.931695 0.579122 2.806 
504 696 -5.987101 0.576895 1.373 
520 696 -6.085061 0.499339 2.113 
536 696 -6.125884 0.444080 2.758 
552 696 -5.859699 0.423421 1.711 
568 696 -5.584248 0.395465 1.336 
584 696 -4.970123 0.556658 1.607 
600 696 -5.035835 0.647686 1.814 
616 696 -5.237786 0.687474 3.725 
632 696 -4.931185 0.533897 1.519 
648 696 -4.983695 0.434159 2.506 
664 696 -5.068843 0.377638 3.204 
680 696 -5.162823 0.281802 2.002 
696 696 -5.299938 0.327790 2.469 
712 696 -5.294977 0.473639 2.703 
728 696 -5.188192 0.592035 1.149 
744 696 -5.107897 0.493571 1.307 
760 696 -5.098214 0.443701 3.398 
776 696 -4.998954 0.360260 2.623 
792 696 -5.136911 0.429686 2.239 
808 696 -5.119949 0.427421 3.490 
824 696 -4.966322 0.215994 3.719 
840 696 -5.019470 0.257752 3.787 
856 696 -4.891776 0.388181 3.428 
872 696 -5.158557 0.429352 3.052 
888 696 -5.323786 0.363103 2.427 
904 696 -5.280665 0.428892 1.108 
920 696 -5.356982 0.766213 1.266 
936 696 -5.399946 0.656222 2.684 
952 696 -5.402557 0.213888 3.327 
968 696 -5.464739 0.014269 2.568 
984 696 -5.618353 -0.105577 2.211 
1000 696 -5.452053 -0.077678 1.371 
1016 696 -5.386397 0.002690 2.206 
1032 696 -5.378376 0.016221 3.071 
1048 696 -5.241414 0.404688 2.107 
1064 696 -4.821083 0.379733 1.619 
1080 696 -4.461786 0.285502 2.887 
1096 696 -4.444333 0.087901 2.841 
1112 696 -4.781061 0.137884 2.630 
1128 696 -4.897168 0.396521 1.352 
1144 696 -4.440667 0.644999 1.059 
1160 696 -4.825403 0.617178 1.286 
1176 696 -5.587379 0.511171 1.307 
1192 696 -5.593143 0.994293 1.450 
1208 696 -3.789806 -0.889530 1.089 
1224 696 -1.314542 -0.966311 1.029 
1240 696 0.585403 -3.143584 1.084 
1256 696 -1.164974 -3.923349 1.023 
1272 696 -0.622033 -4.187832 1.087 
8 680 16.508698 8.873260 1.043 
24 680 7.884825 4.210692 1.120 
40 680 1.607588 3.192559 1.624 
56 680 -1.616565 3.952317 1.102 
72 680 -2.475896 7.383054 1.217 
88 680 -5.044391 4.860152 1.053 
104 680 -6.658565 2.745011 1.209 
120 680 -6.532698 2.380459 1.628 
136 680 -6.850635 1.692482 1.345 
152 680 -6.553765 1.082065 1.353 
168 680 -6.340813 1.254026 2.046 
184 680 -6.782464 1.165216 1.484 
200 680 -6.914499 1.176406 1.319 
216 680 -6.287948 1.142665 2.779 
232 680 -5.859941 0.901209 2.034 
248 680 -5.596385 0.782428 2.173 
264 680 -6.136579 1.001062 1.599 
280 680 -6.525975 0.780509 1.448 
296 680 -6.559104 0.818674 3.294 
312 680 -6.401339 0.885627 3.325 
328 680 -6.242735 1.028532 5.224 
344 680 -6.307597 1.020006 2.001 
360 680 -6.432069 0.489916 1.437 
376 680 -6.422483 0.724848 1.048 
392 680 -6.193937 0.706470 1.410 
408 680 -6.173217 0.495114 1.431 
424 680 -6.183216 0.757592 1.698 
440 680 -6.179897 0.490906 2.123 
456 680 -5.975313 0.355646 1.419 
472 680 -5.954669 0.413219 1.834 
488 680 -5.873068 0.530027 2.230 
504 680 -5.996370 0.503468 1.867 
520 680 -6.266764 0.351338 1.112 
536 680 -6.218702 0.199194 2.350 
552 680 -5.944409 0.261910 1.568 
568 680 -5.637131 0.357917 1.610 
584 680 -5.586597 0.638019 2.788 
600 680 -5.659143 0.705082 3.095 
616 680 -5.513277 0.626623 2.831 
632 680 -5.084054 0.393207 1.662 
648 680 -5.110578 0.275530 2.579 
664 680 -5.107937 0.133282 3.935 
680 680 -5.098203 0.110707 1.898 
696 680 -5.083004 0.258268 1.979 
712 680 -4.875707 0.234966 1.944 
728 680 -4.941397 0.402367 1.632 
744 680 -4.942652 0.294571 1.973 
760 680 -5.205230 0.245500 1.492 
776 680 -5.146524 0.158655 1.616 
792 680 -5.093752 0.051363 3.518 
808 680 -5.174412 0.010534 6.565 
824 680 -5.018131 -0.055855 4.325 
840 680 -4.918415 0.150998 2.750 
856 680 -4.901738 0.548109 2.601 
872 680 -5.063416 0.344094 2.384 
888 680 -5.089798 0.255326 2.822 
904 680 -5.067884 0.303159 1.287 
920 680 -4.991435 0.369295 2.922 
936 680 -4.875736 0.142233 1.538 
952 680 -5.067118 0.102198 3.676 
968 680 -5.140507 0.020810 2.004 
984 680 -5.256776 0.011468 1.530 
1000 680 -5.278480 0.105626 2.131 
1016 680 -5.112320 -0.086476 2.487 
1032 680 -5.371481 -0.116072 2.310 
1048 680 -5.132396 -0.005882 2.514 
1064 680 -4.683011 0.104543 1.736 
1080 680 -4.278296 -0.059862 1.643 
1096 680 -4.165977 -0.147022 2.036 
1112 680 -4.298606 -0.128390 2.469 
1128 680 -3.929453 0.413115 2.744 
1144 680 -3.976526 0.264144 1.012 
1160 680 -4.601691 0.385513 1.069 
1176 680 -5.071892 0.366751 1.574 
1192 680 -4.543111 0.002962 1.106 
1208 680 -1.567144 -0.945301 1.451 
1224 680 0.610217 -3.517361 1.110 
1240 680 2.627151 -5.890012 1.016 
1256 680 3.484327 -6.845103 1.204 
1272 680 3.420723 -6.654485 1.133 
8 664 16.190338 3.426123 1.116 
24 664 7.217436 0.929553 1.112 
40 664 -0.452370 -0.165507 1.174 
56 664 -0.623439 2.372144 1.043 
72 664 1.874954 5.370567 1.121 
88 664 -0.641695 3.573464 1.077 
104 664 -3.181614 1.675240 1.099 
120 664 -5.814476 1.718973 1.576 
136 664 -6.491134 1.255089 2.091 
152 664 -5.943385 0.820838 1.170 
168 664 -5.964905 0.913661 2.187 
184 664 -6.021230 1.002970 1.098 
200 664 -6.079995 1.146561 1.418 
216 664 -5.882224 1.375004 3.390 
232 664 -5.551692 1.098528 4.849 
248 664 -5.605627 0.746435 1.039 
264 664 -6.230103 0.999055 1.598 
280 664 -6.719264 0.903927 2.667 
296 664 -6.382262 1.008627 2.773 
312 664 -6.091906 1.104124 1.511 
328 664 -6.151197 0.988717 1.394 
344 664 -6.417365 0.918292 1.902 
360 664 -6.385824 0.582655 1.134 
376 664 -6.586862 0.744713 1.048 
392 664 -6.251689 0.660052 2.245 
408 664 -6.095173 0.843367 1.553 
424 664 -6.061416 1.014789 2.098 
440 664 -5.998886 0.590308 2.490 
456 664 -5.977833 0.275983 2.551 
472 664 -5.997759 0.310826 2.603 
488 664 -5.838351 0.589568 2.505 
504 664 -6.002110 0.633348 1.372 
520 664 -6.148620 0.343205 1.138 
536 664 -5.913102 0.205967 1.798 
552 664 -5.703228 0.283498 1.508 
568 664 -5.388033 0.267281 1.864 
584 664 -5.503767 0.049923 1.939 
600 664 -5.599070 0.345376 1.564 
616 664 -5.664142 0.083318 1.372 
632 664 -5.324288 0.229673 1.015 
648 664 -5.167680 0.079365 2.647 
664 664 -5.021513 -0.059847 4.429 
680 664 -4.835473 -0.028067 3.403 
696 664 -4.848874 0.062371 3.220 
712 664 -4.686550 0.130984 3.683 
728 664 -5.029255 0.256769 2.611 
744 664 -5.013718 0.170149 2.688 
760 664 -5.119447 0.052873 2.578 
776 664 -5.024532 -0.035089 4.233 
792 664 -4.947068 -0.057587 2.572 
808 664 -5.333082 -0.254902 1.004 
824 664 -5.276824 -0.080889 2.093 
840 664 -5.094813 0.344848 2.547 
856 664 -5.106247 0.700450 2.193 
872 664 -5.018083 0.454666 2.787 
888 664 -4.979713 0.293199 2.236 
904 664 -4.966959 0.423788 2.616 
920 664 -4.877259 0.493877 3.281 
936 664 -4.708176 0.069293 2.010 
952 664 -5.119349 0.210893 2.678 
968 664 -5.190263 0.079547 2.710 
984 664 -5.206022 -0.006677 2.826 
1000 664 -5.108130 0.017793 2.227 
1016 664 -4.867676 -0.142088 2.266 
1032 664 -4.883041 -0.410748 2.920 
1048 664 -4.859193 -0.216136 1.577 
1064 664 -4.481429 -0.469641 1.336 
1080 664 -4.347529 -0.055054 2.496 
1096 664 -4.233099 -0.106556 3.091 
1112 664 -4.081462 -0.082653 2.485 
1128 664 -3.689612 0.060823 2.987 
1144 664 -3.876707 0.173057 2.687 
1160 664 -4.487735 0.138529 2.418 
1176 664 -4.657004 0.051724 1.047 
1192 664 -3.935605 -0.374998 1.099 
1208 664 -0.980954 -2.602380 1.084 
1224 664 1.562344 -5.121757 1.147 
1240 664 3.050657 -8.005209 1.372 
1256 664 3.893566 -8.328475 1.480 
1272 664 4.736475 -8.651741 1.450 
8 648 14.274132 4.271232 1.288 
24 648 0.967339 0.087029 1.371 
40 648 1.974820 1.895742 1.015 
56 648 4.801593 4.533170 1.208 
72 648 5.528896 4.534811 1.208 
88 648 3.462086 1.779607 1.410 
104 648 0.170143 0.183026 1.206 
120 648 -4.936704 1.001818 1.719 
136 648 -6.269435 0.623841 1.996 
152 648 -6.092633 0.959551 1.367 
168 648 -5.820544 0.788975 3.223 
184 648 -5.983077 1.019282 1.202 
200 648 -6.038854 1.236379 1.629 
216 648 -6.070647 1.419779 3.256 
232 648 -5.800899 1.226291 3.867 
248 648 -5.889363 0.994613 1.011 
264 648 -6.323626 0.997049 1.045 
280 648 -6.688887 0.889790 1.756 
296 648 -6.633882 1.004731 1.537 
312 648 -6.213783 0.996404 1.475 
328 648 -6.059660 0.948901 2.067 
344 648 -6.082833 0.522224 2.597 
360 648 -6.339578 0.675394 2.959 
376 648 -6.370581 0.762069 3.106 
392 648 -6.145582 0.927977 2.104 
408 648 -5.817940 0.712498 3.010 
424 648 -5.764024 0.820069 2.029 
440 648 -5.781938 0.626413 2.906 
456 648 -5.907339 0.388671 3.554 
472 648 -5.911019 0.405101 2.258 
488 648 -5.846671 0.751757 2.431 
504 648 -5.847054 0.870136 1.016 
520 648 -5.836374 0.261314 1.161 
536 648 -5.828034 0.165406 1.831 
552 648 -5.604233 0.007815 1.096 
568 648 -5.429149 0.030416 1.702 
584 648 -5.506034 0.262104 2.003 
600 648 -5.538997 -0.014329 1.796 
616 648 -5.351781 -0.024670 2.042 
632 648 -5.020029 0.118105 2.042 
648 648 -4.989909 -0.171014 2.033 
664 648 -5.127548 -0.190553 3.299 
680 648 -4.993669 -0.039897 2.337 
696 648 -5.251610 0.360003 1.196 
712 648 -5.220653 0.683438 1.998 
728 648 -5.149183 0.523487 2.882 
744 648 -5.097534 0.287853 2.435 
760 648 -4.844402 0.056405 2.206 
776 648 -4.832298 -0.047612 4.808 
792 648 -4.904398 -0.024503 2.814 
808 648 -5.205055 -0.088566 3.015 
824 648 -5.160048 -0.182829 3.164 
840 648 -5.130366 0.194983 2.512 
856 648 -5.087659 0.437055 1.699 
872 648 -4.728528 0.325739 1.756 
888 648 -4.683736 0.234575 2.653 
904 648 -4.900675 0.373554 2.194 
920 648 -4.939824 0.213710 2.688 
936 648 -5.217274 -0.089957 1.043 
952 648 -5.280675 0.008623 1.352 
968 648 -5.313735 0.099017 1.357 
984 648 -5.161291 -0.057800 2.043 
1000 648 -4.709248 0.078240 2.440 
1016 648 -4.530108 0.113186 1.897 
1032 648 -4.797068 -0.042133 2.297 
1048 648 -4.525122 -0.306217 1.673 
1064 648 -4.273529 -0.326803 1.080 
1080 648 -4.239531 -0.100375 1.179 
1096 648 -4.485858 -0.243444 1.852 
1112 648 -4.349333 -0.216593 1.069 
1128 648 -3.900998 0.045463 1.202 
1144 648 -4.003340 0.043257 2.222 
1160 648 -4.301177 0.114731 1.701 
1176 648 -4.287895 -0.002924 1.433 
1192 648 -3.670777 -0.570463 44.074 
1208 648 -1.602611 -2.413073 20.000 
1224 648 1.583597 -5.038577 1.398 
1240 648 2.836724 -8.014685 1.094 
1256 648 -1.933923 -12.028146 1.162 
1272 648 -6.704570 -16.041608 1.310 
8 632 12.357926 5.116340 1.203 
24 632 5.456682 2.362160 1.189 
40 632 4.007309 2.754849 1.242 
56 632 4.136027 3.674638 1.326 
72 632 6.158606 3.824281 1.000 
88 632 2.403312 0.460276 1.180 
104 632 1.917632 -1.208256 1.478 
120 632 -2.684613 -0.162918 1.042 
136 632 -5.858828 1.042673 1.100 
152 632 -6.361868 1.194895 2.584 
168 632 -6.161767 1.116846 2.866 
184 632 -6.298947 1.031717 1.025 
200 632 -6.002464 1.166860 1.713 
216 632 -6.338582 1.334278 2.059 
232 632 -6.531000 1.289624 2.307 
248 632 -6.221115 1.341036 1.460 
264 632 -6.478146 1.127723 1.082 
280 632 -6.658511 0.875652 1.303 
296 632 -6.447858 0.917365 2.177 
312 632 -6.237204 0.959079 1.921 
328 632 -6.053001 0.843892 2.777 
344 632 -5.769206 0.014880 1.236 
360 632 -5.932612 0.236816 2.346 
376 632 -6.154299 0.779424 2.847 
392 632 -6.020544 0.691530 2.675 
408 632 -5.846039 0.302268 2.115 
424 632 -5.729370 0.407773 2.124 
440 632 -5.749105 0.537770 3.002 
456 632 -5.926781 0.448860 2.063 
472 632 -5.941971 0.376847 1.907 
488 632 -6.006122 0.467304 3.432 
504 632 -5.934126 0.521172 2.350 
520 632 -5.792616 0.276591 1.825 
536 632 -5.772359 -0.022670 2.604 
552 632 -5.694070 0.014253 1.909 
568 632 -5.563262 0.033435 2.885 
584 632 -5.265632 0.177099 1.426 
600 632 -5.198507 0.072091 3.233 
616 632 -5.340137 0.065844 2.999 
632 632 -5.220908 0.019058 2.807 
648 632 -5.393663 -0.166983 2.107 
664 632 -5.269168 0.035886 4.806 
680 632 -5.135723 0.158191 2.930 
696 632 -5.298751 0.465764 2.188 
712 632 -5.233079 0.689353 2.447 
728 632 -4.999685 0.518068 1.503 
744 632 -4.869119 0.218640 2.123 
760 632 -4.854960 0.087760 1.722 
776 632 -4.860791 0.106164 2.505 
792 632 -4.852892 0.156041 1.941 
808 632 -4.956942 0.096902 4.562 
824 632 -5.055730 -0.267191 1.929 
840 632 -5.254403 -0.057064 1.375 
856 632 -5.235924 0.258802 1.176 
872 632 -4.786459 0.126972 2.387 
888 632 -4.439900 0.192029 2.006 
904 632 -4.834391 0.323319 2.494 
920 632 -4.930797 0.003921 1.363 
936 632 -5.180712 -0.197873 1.382 
952 632 -5.259236 -0.143724 2.132 
968 632 -5.129229 -0.212632 1.432 
984 632 -4.749575 -0.282788 1.390 
1000 632 -4.266491 0.274958 3.514 
1016 632 -4.272506 0.419247 2.957 
1032 632 -4.746252 0.231986 2.054 
1048 632 -4.511492 -0.081221 2.769 
1064 632 -4.313859 -0.083317 1.029 
1080 632 -4.203302 0.002629 1.230 
1096 632 -4.778492 -0.160065 1.540 
1112 632 -4.489058 -0.223206 1.609 
1128 632 -4.112384 0.030102 2.423 
1144 632 -4.020156 0.393038 2.257 
1160 632 -3.923405 0.257433 3.023 
1176 632 -3.884639 0.146775 1.866 