TITLE = "B00287"
VARIABLES = "x", "y", "u", "v", "sn"
ZONE T="Frame 0", I=80, J=50
8 792 0.000000 -0.000000 1.096 
24 792 10.969662 13.073695 1.006 
40 792 1.071965 0.554954 1.041 
56 792 0.223601 -0.317109 1.228 
72 792 -0.624763 -1.189172 1.202 
88 792 -1.203939 -1.568844 1.654 
104 792 -7.144580 7.782531 1.146 
120 792 -10.642455 7.961925 1.002 
136 792 -14.140330 8.141319 1.790 
152 792 -17.638205 8.320714 2.136 
168 792 -11.219322 4.497737 1.438 
184 792 -7.835469 4.851450 1.254 
200 792 -7.487866 4.681805 1.275 
216 792 -7.140263 4.512161 1.313 
232 792 -6.792661 4.342516 1.536 
248 792 -6.844545 2.519276 1.479 
264 792 -6.896429 0.696035 3.317 
280 792 -6.821234 0.563212 3.172 
296 792 -6.996287 0.270424 2.442 
312 792 -7.159351 0.002785 2.043 
328 792 -7.175186 0.156445 3.229 
344 792 -7.176652 0.326722 1.745 
360 792 -6.949583 -0.435477 2.326 
376 792 -6.885473 -0.439015 2.208 
392 792 -6.968401 0.107164 2.818 
408 792 -7.067319 0.053304 2.135 
424 792 -7.166237 -0.000556 1.429 
440 792 -6.964268 -0.071117 2.388 
456 792 -6.930335 -0.188462 2.162 
472 792 -7.011563 -0.416277 2.058 
488 792 -6.953841 -0.391787 2.174 
504 792 -7.007090 -0.611246 2.261 
520 792 -7.102639 -0.754109 1.575 
536 792 -7.084244 -0.825778 4.758 
552 792 -6.791413 -0.950690 2.935 
568 792 -6.656637 -0.992663 4.743 
584 792 -6.674921 -1.067787 3.399 
600 792 -6.841318 -1.167721 2.878 
616 792 -6.836833 -1.436811 4.613 
632 792 -6.811177 -1.543352 17.235 
648 792 -6.793196 -1.662572 2.799 
664 792 -6.388373 -1.456488 2.111 
680 792 -5.739608 -1.102568 2.051 
696 792 -5.859563 -1.333669 1.941 
712 792 -6.028313 -1.504925 2.371 
728 792 -5.889266 -1.568721 2.612 
744 792 -5.763467 -1.668770 2.662 
760 792 -5.570679 -1.925506 1.917 
776 792 -5.274861 -1.636459 3.647 
792 792 -5.207408 -0.722061 3.834 
808 792 -5.271116 -0.624954 2.320 
824 792 -5.334825 -0.527848 2.254 
840 792 -5.340379 -0.685543 2.409 
856 792 -5.553877 -0.212579 1.478 
872 792 -5.864981 0.201249 1.314 
888 792 -6.275801 0.681067 1.262 
904 792 -6.572230 1.175021 2.028 
920 792 -6.453005 1.441483 5.074 
936 792 -6.290593 0.969875 1.472 
952 792 -6.141169 0.400403 1.256 
968 792 -6.271048 0.153013 2.857 
984 792 -6.066278 0.159944 1.588 
1000 792 -6.227539 0.472452 3.904 
1016 792 -6.405104 0.285577 3.922 
1032 792 -6.604262 0.517376 3.009 
1048 792 -7.499076 1.734555 1.825 
1064 792 -9.640302 5.909705 1.043 
1080 792 -10.540058 8.231110 1.515 
1096 792 -6.410343 2.518891 1.310 
1112 792 -8.870478 2.863334 1.418 
1128 792 -11.330614 3.207777 1.392 
1144 792 -13.616518 0.034221 1.010 
1160 792 -13.144115 2.591896 1.042 
1176 792 -12.671713 5.149572 1.212 
1192 792 -12.199311 7.707247 1.178 
1208 792 -7.864870 5.425485 1.021 
1224 792 -3.530429 3.143723 1.376 
1240 792 0.804012 0.861961 1.664 
1256 792 0.711751 1.052023 1.130 
1272 792 0.000000 -0.000000 1.062 
8 776 9.885627 14.551089 1.069 
24 776 4.881373 9.456799 1.020 
40 776 -0.484753 2.185792 1.056 
56 776 -0.448366 0.729745 1.199 
72 776 -0.411978 -0.726302 1.181 
88 776 -0.213285 -1.167954 1.595 
104 776 -5.776076 7.470917 1.196 
120 776 -9.713033 7.649836 1.019 
136 776 -14.427054 7.986522 1.813 
152 776 -15.337126 7.176868 2.126 
168 776 -10.947613 2.970705 1.445 
184 776 -7.972221 1.785696 1.282 
200 776 -7.255592 3.635374 1.290 
216 776 -7.103974 2.883000 1.318 
232 776 -6.952357 2.130626 1.643 
248 776 -7.015455 0.717881 1.581 
264 776 -6.911070 0.717144 3.271 
280 776 -6.879732 0.580733 3.078 
296 776 -6.974263 0.356766 2.438 
312 776 -7.072713 0.064206 2.072 
328 776 -7.061603 0.181313 3.335 
344 776 -7.077739 0.235937 1.788 
360 776 -6.839286 -0.313689 1.896 
376 776 -6.737330 -0.322745 2.443 
392 776 -6.789231 0.117812 2.817 
408 776 -6.919441 0.421172 2.121 
424 776 -6.876653 0.084367 1.434 
440 776 -6.731690 0.059536 2.408 
456 776 -6.771238 -0.104945 2.166 
472 776 -6.906226 -0.356644 2.110 
488 776 -6.884007 -0.384090 2.247 
504 776 -6.978744 -0.616923 2.469 
520 776 -7.021480 -0.769874 1.635 
536 776 -6.998314 -0.864699 4.525 
552 776 -6.745133 -1.036810 3.113 
568 776 -6.611391 -1.050226 4.606 
584 776 -6.594972 -1.090785 3.404 
600 776 -6.753275 -1.151386 2.909 
616 776 -6.782794 -1.348429 4.460 
632 776 -6.743416 -1.432472 19.065 
648 776 -6.706348 -1.582754 2.761 
664 776 -6.409729 -1.393000 2.139 
680 776 -5.842813 -1.016139 1.979 
696 776 -5.964765 -1.176169 1.898 
712 776 -6.101504 -1.374883 2.284 
728 776 -5.962393 -1.454238 2.380 
744 776 -5.795895 -1.521672 2.676 
760 776 -5.620865 -1.737472 1.942 
776 776 -5.375103 -1.442264 3.679 
792 776 -5.281328 -0.607544 3.669 
808 776 -5.418585 -0.052836 2.294 
824 776 -5.424011 -0.423241 2.277 
840 776 -5.400146 -0.515300 2.399 
856 776 -5.576525 -0.012652 1.564 
872 776 -5.931082 0.369518 1.344 
888 776 -6.367243 0.781660 1.254 
904 776 -6.655158 1.230773 1.152 
920 776 -6.540978 1.456891 4.076 
936 776 -6.415870 0.993901 1.290 
952 776 -6.237480 0.446804 1.228 
968 776 -6.338088 0.252736 2.811 
984 776 -6.178892 0.192679 1.578 
1000 776 -6.334791 0.422294 4.133 
1016 776 -6.476853 0.226729 3.942 
1032 776 -6.525725 0.299192 2.978 
1048 776 -7.191768 1.141089 2.134 
1064 776 -8.418907 3.881726 1.096 
1080 776 -9.276001 5.878193 1.565 
1096 776 -6.331279 1.540273 1.214 
1112 776 -7.387919 1.914222 1.443 
1128 776 -9.834788 1.306534 1.377 
1144 776 -12.402194 -1.018335 1.011 
1160 776 -8.903410 -0.594581 1.037 
1176 776 -5.404626 -0.170827 1.180 
1192 776 -6.309601 2.740520 1.056 
1208 776 -4.497932 3.138805 1.101 
1224 776 0.030381 1.024027 1.459 
1240 776 0.641645 1.161978 1.427 
1256 776 0.568693 0.475476 1.093 
1272 776 0.000000 -0.000000 1.042 
8 760 9.854708 7.384679 1.009 
24 760 0.831596 2.568122 1.119 
40 760 -1.621612 3.522971 1.150 
56 760 -1.178079 2.062559 1.272 
72 760 -0.734546 0.602148 1.035 
88 760 0.979126 -1.291265 1.273 
104 760 -2.161487 1.223989 1.101 
120 760 -5.302100 3.739244 1.143 
136 760 -10.755961 5.517384 1.526 
152 760 -13.036048 6.033022 4.095 
168 760 -10.083360 2.410650 3.126 
184 760 -7.299348 1.113357 2.112 
200 760 -6.931958 1.101407 1.698 
216 760 -6.675715 2.419298 1.466 
232 760 -6.950266 1.308731 1.840 
248 760 -7.142682 0.853696 1.812 
264 760 -6.924831 0.940339 3.819 
280 760 -7.108103 0.669116 3.603 
296 760 -6.832594 0.595256 2.539 
312 760 -6.829591 0.314589 2.028 
328 760 -6.973118 0.243265 1.563 
344 760 -6.867497 0.160479 2.073 
360 760 -6.563322 -0.035745 1.654 
376 760 -6.430883 -0.114984 1.913 
392 760 -6.481972 -0.055675 3.288 
408 760 -6.333354 0.057994 1.224 
424 760 -6.230798 0.201082 1.701 
440 760 -6.300755 0.283670 1.889 
456 760 -6.509202 -0.007276 2.809 
472 760 -6.811877 -0.211315 1.842 
488 760 -6.896967 -0.466244 2.144 
504 760 -6.882721 -0.634575 2.206 
520 760 -6.874292 -0.745136 1.500 
536 760 -6.913818 -0.800904 2.721 
552 760 -6.929054 -1.030371 3.930 
568 760 -6.472708 -1.222006 3.044 
584 760 -6.452647 -1.129552 2.302 
600 760 -6.641219 -1.114496 3.551 
616 760 -6.712656 -1.273668 3.171 
632 760 -6.627907 -1.290410 2.020 
648 760 -6.658109 -1.475613 4.436 
664 760 -6.407449 -1.449768 4.247 
680 760 -6.001696 -1.068804 3.189 
696 760 -6.238491 -1.049942 2.454 
712 760 -6.428314 -1.260463 2.071 
728 760 -6.209045 -1.259193 1.956 
744 760 -5.858610 -1.379986 2.636 
760 760 -5.499913 -1.442961 1.067 
776 760 -5.462757 -1.249562 1.345 
792 760 -5.650734 -0.808257 3.941 
808 760 -5.648798 -0.332941 2.953 
824 760 -5.556028 -0.432745 2.514 
840 760 -5.292610 -0.535382 2.575 
856 760 -5.412032 0.165496 2.121 
872 760 -5.904791 0.746399 1.342 
888 760 -6.516687 0.776226 1.878 
904 760 -6.687767 1.283886 1.329 
920 760 -6.605053 1.250971 1.300 
936 760 -6.385127 0.572009 1.128 
952 760 -6.256139 0.396190 1.916 
968 760 -6.132255 0.343148 2.175 
984 760 -6.187292 0.344380 1.665 
1000 760 -6.393479 0.154770 2.509 
1016 760 -6.402302 -0.013519 2.325 
1032 760 -6.220501 -0.026571 2.051 
1048 760 -6.425742 0.507157 3.423 
1064 760 -7.197511 1.853747 1.227 
1080 760 -8.011943 3.525276 1.479 
1096 760 -6.395193 1.068298 1.227 
1112 760 -6.825458 1.137455 1.056 
1128 760 -7.799610 0.605262 1.141 
1144 760 -8.453714 -0.737326 1.096 
1160 760 -5.559433 -0.625568 1.082 
1176 760 -2.665151 -0.513811 1.355 
1192 760 -1.995009 0.085664 1.022 
1208 760 -1.324866 0.685140 1.046 
1224 760 -0.663807 0.788603 1.623 
1240 760 0.445544 0.959286 1.678 
1256 760 0.554836 -0.077705 1.032 
1272 760 0.000000 -0.000000 1.063 
8 744 15.494178 0.489363 1.020 
24 744 10.320063 0.240962 1.059 
40 744 1.628278 0.590427 1.025 
56 744 -2.480932 1.508841 1.028 
72 744 -1.023309 1.606214 1.492 
88 744 0.122366 -0.563477 1.131 
104 744 1.184391 -2.092820 1.114 
120 744 0.806329 -2.142412 1.138 
136 744 -3.967115 3.495595 1.090 
152 744 -8.311626 3.531536 1.511 
168 744 -7.378556 1.694056 1.950 
184 744 -6.913050 0.912131 2.523 
200 744 -6.726082 0.643273 2.111 
216 744 -6.408321 1.523068 1.592 
232 744 -6.542537 1.461179 2.519 
248 744 -6.498618 1.140440 3.576 
264 744 -6.867431 0.837771 4.239 
280 744 -7.131450 0.675969 2.980 
296 744 -6.807236 0.568390 2.674 
312 744 -6.493571 0.321703 1.859 
328 744 -6.594621 -0.028643 1.068 
344 744 -6.462488 0.124296 1.350 
360 744 -6.290776 0.072975 2.167 
376 744 -6.203890 -0.027330 1.961 
392 744 -6.108892 0.044367 2.439 
408 744 -5.958039 0.078147 1.304 
424 744 -5.950197 0.139409 2.027 
440 744 -6.181159 0.191834 1.964 
456 744 -6.558073 -0.090245 1.465 
472 744 -6.506752 -0.319191 1.328 
488 744 -6.843108 -0.594117 3.038 
504 744 -6.878419 -0.765047 1.736 
520 744 -6.787851 -0.807147 1.526 
536 744 -6.606083 -0.908638 5.326 
552 744 -6.740143 -1.130491 5.038 
568 744 -6.506253 -1.268968 2.396 
584 744 -6.368459 -1.294873 2.694 
600 744 -6.478595 -1.260938 3.353 
616 744 -6.576023 -1.259664 2.255 
632 744 -6.452051 -1.227582 2.513 
648 744 -6.538985 -1.392374 2.321 
664 744 -6.628100 -1.285086 1.827 
680 744 -6.676564 -1.048934 1.471 
696 744 -6.559103 -0.807063 1.450 
712 744 -6.526312 -1.019330 1.611 
728 744 -6.280470 -1.186489 2.225 
744 744 -5.913031 -1.196439 1.331 
760 744 -5.816160 -1.273956 1.025 
776 744 -5.851755 -1.213542 1.185 
792 744 -5.845967 -0.930184 2.728 
808 744 -5.790473 -0.596381 2.611 
824 744 -5.769131 -0.426617 3.335 
840 744 -5.518345 -0.429329 3.391 
856 744 -5.216537 0.103982 2.367 
872 744 -5.395100 0.436783 1.879 
888 744 -6.020670 0.199328 1.071 
904 744 -6.113477 0.802902 1.261 
920 744 -6.230779 1.069822 2.268 
936 744 -6.237612 0.557221 2.574 
952 744 -6.044033 0.437592 2.225 
968 744 -5.970419 0.213234 1.323 
984 744 -6.045475 -0.030576 2.012 
1000 744 -6.080977 -0.477702 2.197 
1016 744 -6.020392 -0.518417 2.811 
1032 744 -5.750578 -0.376059 2.754 
1048 744 -5.946100 -0.085334 2.651 
1064 744 -6.346993 0.543512 1.150 
1080 744 -6.747886 1.172359 2.030 
1096 744 -6.513813 0.873819 6.594 
1112 744 -6.262997 0.360688 3.637 
1128 744 -6.605551 0.166742 1.054 
1144 744 -6.931045 -0.857496 1.354 
1160 744 -5.175737 -0.941573 1.017 
1176 744 -0.069755 -0.372831 1.074 
1192 744 0.060242 0.063892 1.070 
1208 744 -1.432789 0.067738 1.123 
1224 744 -0.798629 0.480633 1.182 
1240 744 -0.008830 -0.905011 1.004 
1256 744 0.266490 -3.353362 1.050 
1272 744 0.000000 -0.000000 1.119 
8 728 24.895323 -5.184162 1.412 
24 728 17.523458 -3.025970 1.362 
40 728 8.960419 -2.410169 1.014 
56 728 -2.042038 -1.583242 1.490 
72 728 -1.183699 0.051812 1.093 
88 728 -0.734395 0.164311 1.004 
104 728 1.767717 -2.844782 1.129 
120 728 1.725839 -0.969142 1.373 
136 728 0.599071 0.173072 1.206 
152 728 -1.998867 0.644225 1.146 
168 728 -6.926463 1.142056 1.079 
184 728 -6.220436 1.199145 2.294 
200 728 -6.290250 1.250458 3.302 
216 728 -6.000558 1.698394 2.221 
232 728 -6.195726 2.104198 1.888 
248 728 -6.438301 1.371963 1.623 
264 728 -6.693163 0.943616 1.659 
280 728 -6.805271 0.881719 2.019 
296 728 -6.509264 0.557907 1.951 
312 728 -6.294261 0.192842 3.513 
328 728 -6.210443 -0.179242 2.283 
344 728 -6.245344 0.057075 2.281 
360 728 -6.228666 0.030626 1.951 
376 728 -6.149670 0.043645 2.827 
392 728 -6.056803 -0.054214 1.695 
408 728 -5.836831 0.048351 2.540 
424 728 -5.788883 0.038677 1.951 
440 728 -6.080825 0.064663 1.837 
456 728 -6.298361 -0.066786 2.332 
472 728 -6.529205 -0.167139 3.181 
488 728 -6.750210 -0.452132 3.544 
504 728 -6.785008 -0.700850 2.445 
520 728 -6.711890 -0.776291 1.969 
536 728 -6.688411 -0.889406 3.584 
552 728 -6.844786 -1.007654 2.618 
568 728 -6.636074 -0.981950 1.855 
584 728 -6.596108 -1.091775 2.281 
600 728 -6.680374 -1.211658 3.865 
616 728 -6.281737 -1.298402 2.497 
632 728 -6.324599 -1.380804 2.468 
648 728 -6.628584 -1.399805 3.591 
664 728 -6.581921 -1.133693 1.940 
680 728 -6.479580 -0.681355 1.004 
696 728 -6.458345 -0.578219 2.374 
712 728 -6.401607 -0.939041 2.686 
728 728 -6.087154 -1.233575 2.624 
744 728 -5.872175 -1.217521 2.996 
760 728 -6.011116 -1.356634 3.016 
776 728 -5.825118 -1.268725 3.173 
792 728 -6.027627 -0.882353 5.526 
808 728 -5.965993 -0.587617 2.872 
824 728 -5.843978 -0.488794 2.158 
840 728 -5.543315 -0.406305 2.167 
856 728 -4.877658 -0.368499 2.068 
872 728 -4.910862 0.169131 1.275 
888 728 -5.131483 0.206093 1.568 
904 728 -5.193428 0.238965 1.585 
920 728 -5.362368 0.873494 5.682 
936 728 -5.632535 0.791496 3.914 
952 728 -5.792338 0.299847 1.962 
968 728 -5.773336 0.052500 1.468 
984 728 -5.799535 -0.379831 1.576 
1000 728 -5.773039 -0.752021 3.508 
1016 728 -5.900730 -0.703959 2.238 
1032 728 -5.774256 -0.559655 1.767 
1048 728 -5.787070 -0.617786 2.675 
1064 728 -6.135041 -0.239542 2.062 
1080 728 -6.088604 0.339198 3.010 
1096 728 -6.167999 0.600127 2.457 
1112 728 -6.015200 0.534087 1.382 
1128 728 -6.062434 0.216030 2.737 
1144 728 -5.869971 -0.320149 2.043 
1160 728 -4.118509 0.124985 1.201 
1176 728 -0.250089 -0.477508 1.050 
1192 728 0.077845 -0.256905 1.187 
1208 728 -1.146894 -0.239078 1.367 
1224 728 -0.887630 0.796795 1.120 
1240 728 -0.269672 -1.767673 1.052 
1256 728 0.133011 -5.375937 1.437 
1272 728 -0.083653 -8.705474 1.462 
8 712 26.028148 -5.791486 1.048 
24 712 22.996529 -4.851886 1.039 
40 712 14.778163 -4.876711 1.028 
56 712 5.769197 -3.233630 1.137 
72 712 0.753615 -0.617742 1.218 
88 712 -0.689038 0.296175 1.200 
104 712 0.453026 -0.391584 1.475 
120 712 2.003746 -1.137953 1.589 
136 712 2.557963 -0.605747 1.074 
152 712 -0.501938 -0.344470 1.154 
168 712 -4.807426 0.426940 1.144 
184 712 -7.222742 1.150790 1.685 
200 712 -6.714791 1.415058 2.136 
216 712 -5.960086 1.658874 2.200 
232 712 -5.885888 1.928553 1.101 
248 712 -5.934800 1.902445 4.592 
264 712 -6.131797 1.497383 5.466 
280 712 -6.383766 1.023254 2.992 
296 712 -6.165056 0.821692 2.469 
312 712 -6.079158 0.403514 4.716 
328 712 -6.010017 0.187602 2.603 
344 712 -6.173755 0.078122 3.412 
360 712 -6.239661 -0.157322 3.776 
376 712 -6.240621 -0.255915 4.282 
392 712 -6.069369 -0.185381 2.448 
408 712 -5.730224 -0.199713 2.150 
424 712 -5.811747 -0.019595 2.317 
440 712 -5.975440 -0.144193 1.285 
456 712 -6.065358 0.011710 2.197 
472 712 -6.464194 0.053110 3.510 
488 712 -6.389240 -0.340753 1.819 
504 712 -6.746487 -0.500485 2.063 
520 712 -6.662989 -0.609598 2.292 
536 712 -6.323021 -0.566555 2.362 
552 712 -6.963401 -0.819138 1.719 
568 712 -6.951000 -0.853892 3.234 
584 712 -6.798129 -0.780538 4.105 
600 712 -6.533431 -1.035546 2.331 
616 712 -6.252442 -1.306375 4.020 
632 712 -6.215895 -1.418219 5.153 
648 712 -6.248817 -1.254619 4.730 
664 712 -6.179396 -0.855024 4.175 
680 712 -5.924735 -0.175695 3.307 
696 712 -5.768514 0.080710 2.261 
712 712 -5.908056 -0.930723 2.167 
728 712 -5.893838 -1.280661 1.917 
744 712 -5.869627 -1.382399 3.629 
760 712 -5.872671 -1.650870 2.019 
776 712 -5.798482 -1.323908 3.241 
792 712 -5.622642 -0.613229 3.267 
808 712 -5.577951 -0.364220 2.221 
824 712 -5.529806 -0.339336 2.231 
840 712 -5.215802 -0.379580 2.257 
856 712 -4.641488 -0.141110 1.177 
872 712 -4.309360 0.145202 1.464 
888 712 -4.242296 0.212857 1.117 
904 712 -4.353244 0.307842 1.026 
920 712 -4.481737 0.344529 2.023 
936 712 -4.781305 0.544211 2.855 
952 712 -5.503641 0.088774 2.798 
968 712 -5.695135 -0.055476 2.466 
984 712 -5.410870 -0.653139 2.894 
1000 712 -5.284358 -0.719516 2.439 
1016 712 -5.628501 -0.711065 3.559 
1032 712 -5.584923 -0.976445 2.039 
1048 712 -5.690519 -0.973196 1.689 
1064 712 -5.839902 -0.712704 1.256 
1080 712 -5.709497 -0.100554 3.680 
1096 712 -5.747231 0.386679 1.694 
1112 712 -5.748594 0.392646 1.679 
1128 712 -5.722392 0.325705 2.721 
1144 712 -5.199220 0.089544 2.229 
1160 712 -2.776337 -0.125812 1.566 
1176 712 -0.112775 0.194065 1.291 
1192 712 0.095471 -0.200235 1.029 
1208 712 -0.005503 -0.089476 1.075 
1224 712 0.635524 0.530307 1.404 
1240 712 -1.325616 -0.843256 1.101 
1256 712 -0.916199 -4.786752 1.087 
1272 712 -3.473728 -7.108976 1.089 
8 696 27.160972 -6.398809 1.233 
24 696 21.270650 -6.921317 1.228 
40 696 11.783169 -7.952290 1.000 
56 696 3.765869 -6.600405 1.014 
72 696 2.505954 -7.236188 1.025 
88 696 0.346409 -3.214698 1.201 
104 696 1.004490 -2.065428 1.218 
120 696 1.662571 -0.916158 1.364 
136 696 -1.517762 -0.531332 1.004 
152 696 -3.534331 -0.264730 1.148 
168 696 -5.865950 0.572766 1.580 
184 696 -7.449563 1.272486 2.035 
200 696 -6.697204 1.509455 1.525 
216 696 -6.155778 1.719731 1.554 
232 696 -5.990938 1.940244 1.151 
248 696 -5.930121 1.944154 1.997 
264 696 -5.877268 1.757565 2.368 
280 696 -5.789841 1.315974 1.538 
296 696 -5.864150 1.166177 1.958 
312 696 -5.511771 0.844403 1.936 
328 696 -5.452687 0.362479 1.494 
344 696 -5.892234 0.065927 2.229 
360 696 -6.046682 -0.264991 2.536 
376 696 -6.125677 -0.536273 3.362 
392 696 -6.021984 -0.452222 1.946 
408 696 -5.781190 -0.153472 1.487 
424 696 -5.834611 -0.077866 1.417 
440 696 -5.891201 -0.162402 1.472 
456 696 -6.012743 0.100052 1.008 
472 696 -6.444344 0.272805 1.574 
488 696 -6.424994 -0.239706 2.819 
504 696 -6.448955 -0.329410 2.569 
520 696 -6.290107 -0.483885 3.105 
536 696 -5.894692 -0.493096 1.570 
552 696 -5.689218 -0.491901 1.908 
568 696 -6.223724 -0.746058 1.679 
584 696 -6.376097 -0.828075 3.177 
600 696 -6.311891 -1.039981 2.908 
616 696 -6.124915 -1.200934 2.959 
632 696 -6.122524 -1.250369 2.806 
648 696 -6.105371 -1.141673 3.199 
664 696 -5.525603 -0.737219 3.807 
680 696 -5.281144 -0.105560 2.196 
696 696 -5.307498 0.080925 3.928 
712 696 -5.428110 -1.324444 3.408 
728 696 -5.460014 -1.752607 2.606 
744 696 -5.614240 -1.696499 3.050 
760 696 -5.534100 -1.779881 2.675 
776 696 -5.126293 -1.230626 2.119 
792 696 -5.108336 -0.259508 1.391 
808 696 -5.020317 0.226253 1.152 
824 696 -4.891219 0.389590 2.395 
840 696 -4.659860 0.253061 1.435 
856 696 -4.307775 0.378116 1.437 
872 696 -3.677877 0.848520 1.347 
888 696 -3.426482 0.900352 1.214 
904 696 -3.626647 0.625503 1.212 
920 696 -3.833939 0.492512 1.986 
936 696 -4.056904 0.565495 3.642 
952 696 -4.663871 0.186651 2.658 
968 696 -5.217938 -0.293393 1.606 
984 696 -5.040575 -1.000206 1.602 
1000 696 -4.872918 -1.069166 2.320 
1016 696 -5.314348 -1.386517 2.619 
1032 696 -5.348109 -1.462264 2.111 
1048 696 -5.383994 -1.286552 2.645 
1064 696 -5.858151 -0.769866 2.582 
1080 696 -5.584391 -0.093308 1.587 
1096 696 -5.499437 0.326379 1.160 
1112 696 -5.454464 0.449111 1.346 
1128 696 -5.571955 0.191085 2.386 
1144 696 -5.392142 -0.208898 1.235 
1160 696 -2.983428 -3.140486 1.026 
1176 696 -1.110499 -1.595513 20.000 
1192 696 0.113098 -0.143566 1.423 
1208 696 1.135888 0.060127 1.143 
1224 696 2.158678 0.263819 1.121 
1240 696 -2.381560 0.081160 1.115 
1256 696 -7.081355 -2.577339 1.508 
1272 696 -6.863803 -5.512479 1.516 
8 680 28.293797 -7.006133 1.223 
24 680 18.725195 -9.572861 1.162 
40 680 8.861129 -10.232130 1.258 
56 680 2.078620 -9.456479 1.314 
72 680 0.696273 -6.936908 1.069 
88 680 -0.686074 -4.417338 1.291 
104 680 -2.076804 -2.082319 1.207 
120 680 -3.467534 0.252700 1.050 
136 680 -6.824135 -0.186841 1.029 
152 680 -7.160579 0.213107 1.229 
168 680 -6.924474 0.718592 1.330 
184 680 -7.244555 1.306291 1.603 
200 680 -6.329918 1.525238 1.510 
216 680 -5.910840 1.627921 2.649 
232 680 -6.064933 1.822215 1.097 
248 680 -6.053348 1.257124 1.116 
264 680 -6.223236 1.500482 1.498 
280 680 -6.326669 1.480366 1.823 
296 680 -5.864428 1.295920 1.022 
312 680 -5.407822 0.937848 1.820 
328 680 -5.462919 0.204830 2.853 
344 680 -5.489630 -0.129151 2.736 
360 680 -5.678052 -0.501847 2.491 
376 680 -5.929068 -0.736732 2.098 
392 680 -6.080504 -0.749702 1.926 
408 680 -5.940615 -0.398746 2.381 
424 680 -5.799899 -0.129479 1.831 
440 680 -6.004530 0.070953 2.062 
456 680 -6.240898 0.199389 1.742 
472 680 -6.310046 0.016962 2.096 
488 680 -6.239786 -0.242329 2.517 
504 680 -6.064572 -0.230078 2.501 
520 680 -5.874441 -0.334485 1.862 
536 680 -5.461274 -0.549199 1.610 
552 680 -5.367252 -0.597111 2.306 
568 680 -5.713304 -0.831008 2.459 
584 680 -5.882821 -0.894971 3.026 
600 680 -5.865511 -0.929679 1.890 
616 680 -5.800032 -1.023643 2.716 
632 680 -5.864510 -1.005675 1.612 
648 680 -5.927375 -0.933027 1.466 
664 680 -5.650071 -0.599099 1.059 
680 680 -4.963544 -0.350164 1.711 
696 680 -5.016992 -0.507906 2.019 
712 680 -5.084335 -1.548075 2.599 
728 680 -5.089853 -2.108807 4.943 
744 680 -5.214260 -1.835433 3.135 
760 680 -5.313576 -1.616941 2.048 
776 680 -4.930513 -0.948986 1.398 
792 680 -4.626820 0.205632 7.721 
808 680 -4.494599 0.880400 3.363 
824 680 -4.330045 0.995161 2.070 
840 680 -4.119008 0.881638 2.293 
856 680 -3.855932 0.898775 1.672 
872 680 -3.139977 1.058489 1.104 
888 680 -3.222360 1.093489 1.037 
904 680 -3.362822 0.957875 2.707 
920 680 -3.613423 0.684806 1.682 
936 680 -3.570962 0.326184 1.768 
952 680 -4.151359 0.016831 2.013 
968 680 -4.759851 -0.673112 1.152 
984 680 -4.875271 -1.217022 1.065 
1000 680 -4.852657 -1.646276 2.213 
1016 680 -5.081076 -1.674329 4.399 
1032 680 -5.090710 -1.600428 3.867 
1048 680 -5.334890 -1.359711 2.957 
1064 680 -5.599228 -0.666467 1.997 
1080 680 -5.155498 -0.137927 1.402 
1096 680 -4.866954 0.182886 1.044 
1112 680 -4.767645 0.309841 1.219 
1128 680 -5.200172 0.246651 1.394 
1144 680 -5.173469 0.146695 1.470 
1160 680 -4.825740 -4.937111 1.334 
1176 680 -2.108223 -3.385091 1.003 
1192 680 -2.163466 -1.516506 1.071 
1208 680 -0.285183 0.020772 1.049 
1224 680 0.379784 -0.365529 1.441 
1240 680 -1.411417 -1.418087 1.319 
1256 680 -3.483261 -3.669673 1.021 
1272 680 -13.036278 -3.969662 1.059 
8 664 29.426622 -7.613456 1.212 
24 664 17.733357 -10.402964 1.177 
40 664 3.701338 -9.913491 1.188 
56 664 0.448305 -4.580892 1.046 
72 664 -0.360737 -2.132912 1.036 
88 664 -3.817484 -1.776907 1.114 
104 664 -8.171448 1.466723 2.520 
120 664 -8.066689 1.258282 1.228 
136 664 -6.512979 -0.266613 1.163 
152 664 -6.862008 0.244123 1.123 
168 664 -6.760923 0.538709 1.481 
184 664 -6.065168 0.802427 2.276 
200 664 -5.581111 1.443631 2.818 
216 664 -5.665901 1.536111 1.573 
232 664 -5.984656 1.498520 1.268 
248 664 -6.331561 1.332533 1.424 
264 664 -6.333918 1.550246 1.646 
280 664 -6.533824 1.534010 1.571 
296 664 -6.214564 1.308601 1.248 
312 664 -5.782394 0.767545 1.020 
328 664 -5.473151 0.047182 1.486 
344 664 -5.712562 -0.665195 2.679 
360 664 -5.530278 -0.856132 2.350 
376 664 -5.786412 -0.862496 1.547 
392 664 -5.962201 -0.841099 1.562 
408 664 -5.877638 -0.641328 1.748 
424 664 -5.691374 -0.347654 1.664 
440 664 -5.835997 -0.389656 5.457 
456 664 -6.008833 -0.403166 8.175 
472 664 -6.062831 -0.474988 8.742 
488 664 -5.974099 -0.490959 2.370 
504 664 -5.781393 -0.425164 2.787 
520 664 -5.549845 -0.484428 4.055 
536 664 -5.687420 -0.763907 2.439 
552 664 -5.490680 -0.866964 1.612 
568 664 -5.470948 -0.965047 2.100 
584 664 -5.555243 -0.967084 2.008 
600 664 -5.602293 -0.875614 1.825 
616 664 -5.608924 -0.713034 2.503 
632 664 -5.650981 -0.506464 1.451 
648 664 -5.832459 -0.685327 2.449 
664 664 -5.286243 -0.709328 1.549 
680 664 -4.645944 -0.594767 1.435 
696 664 -4.900057 -0.911608 2.042 
712 664 -5.263004 -1.360128 1.974 
728 664 -4.949190 -1.862146 1.657 
744 664 -4.757870 -1.821504 2.287 
760 664 -5.061580 -1.468877 2.278 
776 664 -5.020750 -0.622064 2.140 
792 664 -4.436617 0.454768 7.723 
808 664 -4.099051 1.126433 4.252 
824 664 -3.837954 1.204008 2.661 
840 664 -3.554061 0.959118 2.952 
856 664 -3.492241 0.894957 2.263 
872 664 -3.379460 0.806367 1.746 
888 664 -3.352464 1.034931 2.213 
904 664 -3.667050 0.897236 2.827 
920 664 -3.332198 0.302285 2.236 
936 664 -3.102903 -0.215652 2.218 
952 664 -3.668592 -0.523269 2.087 
968 664 -4.238403 -1.020406 1.683 
984 664 -4.653715 -1.265842 2.196 
1000 664 -4.921339 -1.445101 5.257 
1016 664 -4.959683 -1.584948 4.928 
1032 664 -4.929137 -1.500279 2.442 
1048 664 -5.094365 -1.003218 2.541 
1064 664 -5.245030 -0.440442 1.789 
1080 664 -4.834442 -0.189522 1.785 
1096 664 -4.480084 0.097107 1.621 
1112 664 -4.443008 0.226978 2.542 
1128 664 -4.828390 0.302217 1.005 
1144 664 -4.954796 0.502289 1.075 
1160 664 -4.740095 1.494145 1.241 
1176 664 -3.484777 -1.318208 1.350 
1192 664 -3.535533 0.077593 1.858 
1208 664 -3.856266 1.268221 1.763 
1224 664 -1.399110 -0.994878 1.012 
1240 664 -0.441275 -2.917333 1.123 
1256 664 0.114832 -4.762006 1.425 
1272 664 0.611314 -7.070171 1.479 
8 648 30.559447 -8.220779 1.274 
24 648 14.311984 -7.915929 1.211 
40 648 3.208325 -0.845052 1.090 
56 648 -1.182010 0.294695 1.110 
72 648 -1.417746 2.671084 1.177 
88 648 -6.948894 0.863523 1.046 
104 648 -6.202276 1.132691 2.527 
120 648 -5.267211 0.876714 1.074 
136 648 -4.690793 0.395981 1.007 
152 648 -5.324125 0.771095 1.844 
168 648 -5.886052 0.965565 2.163 
184 648 -5.566961 1.008297 1.611 
200 648 -5.213342 1.313280 2.481 
216 648 -5.294837 1.164894 1.987 
232 648 -6.031211 1.120268 2.344 
248 648 -6.653427 1.282274 2.108 
264 648 -6.918682 1.708381 2.554 
280 648 -6.819976 1.656200 2.196 
296 648 -6.730554 1.240009 1.422 
312 648 -6.698010 0.584275 1.597 
328 648 -6.619004 -0.528984 1.105 
344 648 -6.013614 -0.698623 1.645 
360 648 -5.662805 -1.075096 2.139 
376 648 -5.628961 -1.012903 2.047 
392 648 -5.750739 -0.902940 1.633 
408 648 -5.595676 -0.946744 2.316 
424 648 -5.198079 -0.994201 1.822 
440 648 -5.567463 -0.865857 5.432 
456 648 -5.701202 -0.776190 14.575 
472 648 -5.633773 -0.891840 11.678 
488 648 -5.401441 -0.905823 2.455 
504 648 -5.137548 -0.823570 1.973 
520 648 -5.002196 -0.783487 1.528 
536 648 -5.175738 -0.968698 2.228 
552 648 -5.092724 -0.961964 1.305 
568 648 -5.167517 -1.072389 1.953 
584 648 -5.326459 -1.153797 3.539 
600 648 -5.359974 -0.913121 2.897 
616 648 -5.419765 -0.472585 2.786 
632 648 -5.562511 -0.362313 2.159 
648 648 -5.547201 -0.705665 2.839 
664 648 -5.013757 -0.855315 1.611 
680 648 -4.620611 -0.823158 1.277 
696 648 -4.739797 -1.062185 3.061 
712 648 -5.621976 -1.283191 1.147 
728 648 -5.639415 -2.111770 1.298 
744 648 -4.788046 -2.103297 1.412 
760 648 -4.975190 -1.596370 2.477 
776 648 -4.656159 -0.354335 2.368 
792 648 -3.957273 0.570968 4.668 
808 648 -3.710655 1.062936 6.505 
824 648 -3.449717 0.940523 5.176 
840 648 -3.398001 0.710727 3.088 
856 648 -3.439110 0.730261 1.983 
872 648 -3.463335 0.693429 1.958 
888 648 -3.846021 0.872270 5.290 
904 648 -3.971279 0.836597 4.328 
920 648 -3.346470 0.225340 4.182 
936 648 -2.831606 -0.536926 1.620 
952 648 -3.090398 -1.236761 1.064 
968 648 -3.432921 -1.312394 2.257 
984 648 -3.858713 -1.226045 6.066 
1000 648 -4.706566 -1.405246 4.398 
1016 648 -4.864407 -1.704532 4.210 
1032 648 -4.991716 -1.677973 1.810 
1048 648 -5.028261 -0.982807 1.513 
1064 648 -5.195867 -0.445506 3.086 
1080 648 -4.921778 -0.366451 2.350 
1096 648 -4.237362 -0.074627 2.121 
1112 648 -4.126998 -0.016555 1.301 
1128 648 -4.456608 0.357784 2.411 
1144 648 -4.736123 0.857882 2.750 
1160 648 -5.143019 0.857310 1.751 
1176 648 -4.861331 0.748674 1.998 
1192 648 -3.940094 0.097783 2.440 
1208 648 -4.075695 0.218865 5.805 
1224 648 -2.523193 -1.965971 1.620 
1240 648 -1.138910 -4.855011 1.463 
1256 648 -0.175854 -7.233456 1.749 
1272 648 0.354139 -8.822132 1.624 
8 632 18.763253 -5.964740 1.140 
24 632 6.924765 -6.136071 1.029 
40 632 -1.117465 -3.765477 1.103 
56 632 -2.146071 -4.532143 1.058 
72 632 -0.927974 -0.890782 1.032 
88 632 -2.750883 -1.042636 1.079 
104 632 -4.233104 0.798659 1.626 
120 632 -4.699386 1.178643 2.045 
136 632 -4.530964 0.983702 1.011 
152 632 -4.966050 1.366381 1.048 
168 632 -5.235313 1.431462 2.222 
184 632 -5.210234 1.570729 1.281 
200 632 -5.092981 1.289596 2.014 
216 632 -5.346198 1.034835 1.704 
232 632 -5.979163 0.794131 3.394 
248 632 -6.726368 0.757672 2.287 
264 632 -7.173868 1.317731 4.822 
280 632 -7.368891 1.557857 5.147 
296 632 -7.286037 1.259160 2.604 
312 632 -7.099379 0.673119 1.785 
328 632 -6.901421 -0.261335 2.192 
344 632 -6.314666 -0.732051 2.090 
360 632 -5.597316 -0.810991 1.716 
376 632 -5.319551 -0.769859 1.240 
392 632 -5.422595 -0.615218 1.775 
408 632 -5.422210 -0.553190 2.055 
424 632 -5.115861 -0.842090 3.688 
440 632 -5.148637 -1.080918 1.126 
456 632 -5.170363 -0.835152 1.940 
472 632 -5.087808 -1.158144 2.670 
488 632 -4.949846 -1.176440 1.436 
504 632 -4.715317 -1.070773 2.471 
520 632 -4.642073 -0.953010 2.057 
536 632 -4.710881 -1.090020 3.325 
552 632 -4.777291 -1.123564 5.420 
568 632 -4.950070 -1.130960 2.228 
584 632 -5.119827 -1.197371 2.417 
600 632 -5.131453 -1.104784 2.049 
616 632 -5.459282 -0.868328 2.896 
632 632 -5.772653 -0.771194 2.244 
648 632 -5.874358 -1.006776 1.425 
664 632 -5.609406 -1.493564 1.687 
680 632 -5.058881 -1.376476 2.194 
696 632 -5.066853 -1.123908 2.024 
712 632 -5.518931 -1.416921 2.076 
728 632 -5.698364 -1.621100 2.466 
744 632 -4.872664 -1.942074 2.011 
760 632 -4.491862 -1.499820 1.643 
776 632 -4.059050 -0.280811 1.774 
792 632 -3.678985 0.385753 1.499 
808 632 -3.526855 0.515459 2.370 
824 632 -3.368028 0.603860 3.007 
840 632 -3.595403 0.525003 3.841 
856 632 -3.717787 0.404469 3.406 
872 632 -3.611005 0.250684 2.650 
888 632 -3.921715 0.371134 2.330 
904 632 -3.632115 0.314218 3.915 
920 632 -3.342516 0.257302 3.401 
936 632 -2.738107 -0.414462 2.027 
952 632 -2.633754 -0.876140 1.625 
968 632 -2.844753 -1.077866 2.688 
984 632 -3.235940 -1.109661 3.296 
1000 632 -3.852090 -1.371459 2.497 