TITLE = "B00226"
VARIABLES = "x", "y", "u", "v", "sn"
ZONE T="Frame 0", I=80, J=50
8 792 0.000000 -0.000000 1.536 
24 792 0.000000 -0.000000 1.463 
40 792 4.807502 -3.406896 1.238 
56 792 2.152749 -1.715034 1.562 
72 792 -0.502005 -0.023173 1.032 
88 792 -4.565462 -4.832118 1.046 
104 792 -4.684141 -3.887627 1.094 
120 792 -4.802820 -2.943136 1.162 
136 792 -4.921498 -1.998645 1.113 
152 792 -5.040177 -1.054153 1.058 
168 792 -5.158856 -0.109662 1.377 
184 792 -5.277535 0.834829 2.563 
200 792 -5.219211 1.637068 5.474 
216 792 -5.036813 1.668854 3.211 
232 792 -4.711161 0.964444 5.120 
248 792 -4.598707 0.688712 3.017 
264 792 -5.047332 0.793202 3.028 
280 792 -5.214990 0.809844 1.918 
296 792 -5.306580 1.158134 2.232 
312 792 -5.309794 2.224227 1.760 
328 792 -5.092312 2.197030 1.791 
344 792 -5.059712 1.294619 1.842 
360 792 -5.216629 0.695635 1.642 
376 792 -5.637672 0.721776 1.056 
392 792 -6.201848 0.477720 1.146 
408 792 -6.265350 0.326350 3.234 
424 792 -6.310063 0.511024 2.723 
440 792 -7.058985 0.667966 2.533 
456 792 -7.557480 0.608738 2.111 
472 792 -7.396052 0.411120 2.404 
488 792 -7.081466 0.080167 4.240 
504 792 -6.742671 -0.069026 2.270 
520 792 -6.624505 0.140817 2.217 
536 792 -6.566808 0.542970 2.169 
552 792 -6.468867 0.737705 2.155 
568 792 -6.995499 0.444423 1.835 
584 792 -6.972327 0.438660 2.157 
600 792 -6.949156 0.432897 1.959 
616 792 -6.742894 0.382048 2.247 
632 792 -6.579793 0.465381 1.491 
648 792 -6.749281 0.258347 2.190 
664 792 -7.046778 -0.044595 2.599 
680 792 -6.955265 -0.063210 3.018 
696 792 -6.688008 -0.225855 1.585 
712 792 -6.627041 -0.279211 1.674 
728 792 -6.743239 -0.196461 2.764 
744 792 -6.936138 -0.350578 1.890 
760 792 -7.016595 -0.604411 2.198 
776 792 -6.973625 -0.627142 3.913 
792 792 -6.955100 -0.723170 3.354 
808 792 -6.957879 -1.003335 2.793 
824 792 -7.123654 -0.842328 2.838 
840 792 -7.589761 -0.548198 3.285 
856 792 -7.611290 -0.681160 4.093 
872 792 -7.126244 -0.348341 2.215 
888 792 -6.136195 0.287482 4.301 
904 792 -5.146146 0.923305 2.173 
920 792 -4.156097 1.559128 1.166 
936 792 -3.319772 7.834090 1.018 
952 792 3.863738 13.899250 1.552 
968 792 16.956774 22.560678 2.116 
984 792 18.439058 21.945629 2.012 
1000 792 19.921342 21.330581 1.483 
1016 792 9.671501 13.095175 1.647 
1032 792 3.292024 7.795409 2.802 
1048 792 -1.506489 4.028439 3.457 
1064 792 -2.725460 2.553078 1.375 
1080 792 -3.944432 1.077718 1.510 
1096 792 -5.163404 -0.397643 2.749 
1112 792 -6.382376 -1.873004 1.737 
1128 792 -6.679538 0.949372 1.354 
1144 792 -14.488570 -1.541123 1.292 
1160 792 -22.297602 -4.031618 1.222 
1176 792 -23.103771 14.280556 1.112 
1192 792 -18.156299 16.048980 1.177 
1208 792 -14.799721 14.713382 1.226 
1224 792 -5.870937 -8.333352 1.186 
1240 792 -3.314284 -6.156864 1.021 
1256 792 -1.172012 -0.120260 1.702 
1272 792 0.000000 -0.000000 1.541 
8 776 9.857817 -4.150845 1.558 
24 776 7.373390 -2.372945 1.490 
40 776 4.888962 -0.595046 1.207 
56 776 -0.541314 0.869163 1.772 
72 776 -0.284218 0.033060 1.085 
88 776 -2.689796 -6.531458 1.064 
104 776 -4.470845 -5.364854 1.091 
120 776 -0.925036 -2.664686 1.071 
136 776 2.620773 0.035481 1.183 
152 776 -1.074357 0.060530 1.036 
168 776 -4.769486 0.085580 1.409 
184 776 -5.417496 0.884704 2.680 
200 776 -5.307562 1.561416 5.301 
216 776 -5.158507 1.566731 2.917 
232 776 -4.852616 0.921102 5.663 
248 776 -4.723627 0.637981 3.030 
264 776 -5.131880 0.737525 2.959 
280 776 -5.147399 0.762128 1.888 
296 776 -5.233416 1.063653 2.271 
312 776 -5.228158 2.019632 1.776 
328 776 -5.080255 1.945051 1.814 
344 776 -5.054261 1.047857 1.923 
360 776 -5.346840 0.454825 1.634 
376 776 -5.810728 0.533739 1.027 
392 776 -6.429093 0.360718 1.112 
408 776 -6.383955 0.233252 3.000 
424 776 -6.341176 0.446672 2.774 
440 776 -6.986005 0.621319 2.592 
456 776 -7.493735 0.676832 2.276 
472 776 -7.288310 0.422566 2.197 
488 776 -7.055958 0.132663 4.332 
504 776 -6.728592 0.011850 2.375 
520 776 -6.604143 0.198834 2.263 
536 776 -6.570620 0.597048 2.216 
552 776 -6.480740 0.815152 2.145 
568 776 -6.965224 0.492578 1.782 
584 776 -7.151540 0.323331 2.073 
600 776 -6.898371 0.391724 2.067 
616 776 -6.798768 0.316891 2.334 
632 776 -6.662818 0.370863 1.524 
648 776 -6.810061 0.195665 2.284 
664 776 -7.046490 -0.054194 2.583 
680 776 -6.971022 -0.041030 2.926 
696 776 -6.726035 -0.199421 1.625 
712 776 -6.694951 -0.255644 1.724 
728 776 -6.772771 -0.180766 2.805 
744 776 -6.945660 -0.330447 1.830 
760 776 -7.008535 -0.571267 2.286 
776 776 -6.982706 -0.595485 3.961 
792 776 -6.946341 -0.672012 3.208 
808 776 -6.953938 -0.920487 2.849 
824 776 -7.113362 -0.785356 2.697 
840 776 -7.515969 -0.521462 3.369 
856 776 -7.544438 -0.785948 4.190 
872 776 -7.324107 -0.675257 2.371 
888 776 -6.960063 0.036374 4.324 
904 776 -6.429494 -0.288775 2.431 
920 776 -6.039342 0.642835 1.225 
936 776 -7.336269 9.896299 1.066 
952 776 2.827738 17.306766 1.451 
968 776 16.066601 23.130487 2.395 
984 776 17.624693 21.669610 2.077 
1000 776 19.182785 20.208732 1.573 
1016 776 7.893293 11.227420 1.593 
1032 776 -2.031123 3.228900 3.266 
1048 776 -4.779208 0.538256 4.619 
1064 776 -6.289166 -0.843599 1.313 
1080 776 -7.565049 -2.023967 1.566 
1096 776 -7.329173 -1.965551 1.023 
1112 776 -7.093297 -1.907135 1.778 
1128 776 -7.254333 -0.144401 1.382 
1144 776 -8.801185 0.435705 1.280 
1160 776 -16.783021 -1.807337 1.207 
1176 776 -21.177023 6.227229 1.131 
1192 776 -18.936753 10.636157 1.156 
1208 776 -12.633586 2.262349 1.228 
1224 776 -8.043373 -8.486136 1.193 
1240 776 -3.703973 -3.012991 1.030 
1256 776 -1.094825 0.715346 1.626 
1272 776 0.000000 -0.000000 1.530 
8 760 9.945247 0.309592 1.045 
24 760 6.858762 2.404706 1.217 
40 760 3.648980 2.890157 1.127 
56 760 -0.293847 2.255721 1.790 
72 760 -0.780326 -2.900189 1.137 
88 760 -0.814130 -8.230798 1.119 
104 760 -0.387145 -8.929002 1.061 
120 760 -0.883228 -4.513479 1.069 
136 760 -1.379311 -0.097957 1.064 
152 760 -4.051230 0.136048 1.461 
168 760 -5.215760 0.669435 1.154 
184 760 -5.652593 1.013950 1.058 
200 760 -5.408997 1.515153 2.478 
216 760 -5.271430 1.508911 3.229 
232 760 -5.001454 1.030187 3.056 
248 760 -4.824706 0.688091 2.756 
264 760 -5.120150 0.748612 3.925 
280 760 -5.089670 0.538161 3.463 
296 760 -5.227293 0.958485 2.302 
312 760 -5.235027 1.678566 1.951 
328 760 -5.147824 1.600727 1.658 
344 760 -5.136452 0.675235 2.534 
360 760 -5.392365 -0.006459 2.001 
376 760 -6.059798 0.009242 1.497 
392 760 -6.924907 0.058630 1.738 
408 760 -6.815546 0.067950 3.309 
424 760 -6.473662 0.135649 2.415 
440 760 -6.288819 0.230488 1.475 
456 760 -6.653283 0.257877 2.056 
472 760 -7.044134 0.258444 2.349 
488 760 -6.901468 0.090155 4.195 
504 760 -6.587053 0.075830 4.897 
520 760 -6.527157 0.258266 3.536 
536 760 -6.336244 0.660370 2.674 
552 760 -6.490275 0.929168 1.929 
568 760 -6.737321 0.687645 1.445 
584 760 -6.762469 0.208019 2.146 
600 760 -6.763747 0.070410 2.139 
616 760 -6.872345 0.103437 2.842 
632 760 -6.998737 0.132188 2.235 
648 760 -6.960437 0.045811 2.890 
664 760 -6.850965 -0.106232 3.359 
680 760 -6.947988 -0.079019 2.142 
696 760 -6.684381 -0.176037 3.972 
712 760 -6.794153 -0.187730 2.259 
728 760 -7.019649 -0.072663 3.168 
744 760 -7.049931 -0.379356 2.950 
760 760 -6.917059 -0.508521 2.729 
776 760 -6.938665 -0.456628 2.973 
792 760 -6.959493 -0.561553 2.748 
808 760 -6.971129 -0.803320 2.553 
824 760 -6.941218 -0.760490 2.550 
840 760 -7.218754 -0.553686 3.042 
856 760 -7.254379 -0.821240 2.841 
872 760 -7.161539 -0.849898 2.940 
888 760 -7.213777 -0.752772 2.116 
904 760 -7.396920 -0.653123 2.867 
920 760 -6.848384 1.028310 2.600 
936 760 -6.501094 8.918080 1.842 
952 760 -6.153805 16.807850 1.331 
968 760 11.466075 20.394646 1.728 
984 760 15.490948 20.216014 2.421 
1000 760 13.597313 15.502787 1.326 
1016 760 -0.221740 4.044388 1.291 
1032 760 -5.489326 0.027378 5.991 
1048 760 -7.177427 -1.664234 6.408 
1064 760 -6.896317 -1.339050 2.885 
1080 760 -7.253357 -1.605514 3.480 
1096 760 -7.054942 -1.722676 1.968 
1112 760 -7.196981 -1.558421 2.426 
1128 760 -7.539847 -0.800846 1.651 
1144 760 -8.795757 -0.349220 1.174 
1160 760 -14.023017 -1.087660 1.087 
1176 760 -19.250276 -1.826099 1.019 
1192 760 -15.725919 -3.834305 1.018 
1208 760 -13.809004 -0.893958 1.037 
1224 760 -10.461580 0.430735 1.230 
1240 760 -4.093662 0.130882 1.166 
1256 760 1.869567 0.570061 1.194 
1272 760 0.000000 -0.000000 1.171 
8 744 8.752176 3.650316 1.105 
24 744 6.512224 3.010876 1.180 
40 744 2.821577 2.406888 1.091 
56 744 0.673808 3.670504 1.134 
72 744 -1.936665 -1.803340 1.145 
88 744 -3.270226 -5.981519 1.037 
104 744 -1.595392 -8.231566 1.337 
120 744 -0.848192 -0.752347 1.012 
136 744 -2.611113 0.005009 1.055 
152 744 -4.592815 0.616306 1.051 
168 744 -5.505185 1.402071 1.069 
184 744 -5.554791 1.116873 1.015 
200 744 -5.395610 1.100083 2.063 
216 744 -5.350353 1.123508 1.717 
232 744 -5.059113 0.980099 3.388 
248 744 -4.803427 0.693059 1.474 
264 744 -5.031868 0.511520 2.096 
280 744 -4.782902 0.750685 1.831 
296 744 -4.736266 1.221041 1.602 
312 744 -5.275695 1.426078 1.397 
328 744 -5.343009 1.436499 1.682 
344 744 -5.621417 0.445094 2.061 
360 744 -6.035635 -0.227235 2.221 
376 744 -6.445339 -0.246644 1.513 
392 744 -6.839342 -0.167182 2.358 
408 744 -6.762241 -0.057645 3.049 
424 744 -6.142332 0.015016 2.702 
440 744 -5.976834 0.028227 4.480 
456 744 -6.249605 0.083105 1.738 
472 744 -6.781991 0.117482 2.051 
488 744 -6.643971 0.145328 3.569 
504 744 -6.521014 0.197599 3.541 
520 744 -6.556650 0.308980 1.158 
536 744 -6.507400 0.434521 1.510 
552 744 -6.863747 0.730230 1.606 
568 744 -6.881806 0.486746 1.401 
584 744 -6.592627 0.009494 2.834 
600 744 -6.599482 0.011967 2.336 
616 744 -6.813814 -0.018973 2.044 
632 744 -6.877460 -0.168190 1.437 
648 744 -6.731496 -0.160940 1.696 
664 744 -6.634717 -0.129456 2.229 
680 744 -6.626121 -0.184273 2.779 
696 744 -6.717869 -0.217113 2.259 
712 744 -6.764546 -0.272845 1.692 
728 744 -6.917368 -0.175581 1.757 
744 744 -6.877357 -0.212336 6.385 
760 744 -6.798108 -0.317217 2.685 
776 744 -6.938093 -0.353576 2.278 
792 744 -6.925877 -0.428539 2.993 
808 744 -6.792352 -0.608978 2.740 
824 744 -6.952933 -0.521515 2.439 
840 744 -7.023037 -0.543048 2.853 
856 744 -7.035998 -0.704141 2.279 
872 744 -7.051395 -0.772615 1.631 
888 744 -7.172330 -0.953798 2.378 
904 744 -7.304024 -1.111080 2.397 
920 744 -7.236242 -0.612904 2.281 
936 744 -8.380998 6.122148 1.817 
952 744 -9.525754 12.857199 1.309 
968 744 0.950207 11.051266 1.429 
984 744 5.615263 11.094690 1.059 
1000 744 4.212889 7.633026 1.014 
1016 744 -5.477591 -0.564666 1.637 
1032 744 -8.432894 -2.323434 6.366 
1048 744 -7.625824 -1.779660 2.985 
1064 744 -7.615684 -1.920921 3.384 
1080 744 -7.125374 -1.615817 2.722 
1096 744 -7.084502 -1.628173 2.619 
1112 744 -7.177768 -1.333775 5.484 
1128 744 -7.413324 -1.079431 2.767 
1144 744 -8.068564 -0.575290 1.293 
1160 744 -11.611330 -1.643332 1.168 
1176 744 -16.022187 -2.330382 1.138 
1192 744 -15.090664 -7.410364 1.047 
1208 744 -14.984421 -4.050266 1.198 
1224 744 -12.093597 1.057830 1.265 
1240 744 -6.151842 0.679143 1.237 
1256 744 1.634159 0.938730 1.189 
1272 744 3.976657 0.427106 1.314 
8 728 7.237091 1.037299 1.143 
24 728 5.489406 0.576033 1.196 
40 728 1.994174 1.923620 1.302 
56 728 -2.889536 -0.982269 1.265 
72 728 -6.106490 -1.103522 1.292 
88 728 -9.093025 -2.681801 1.261 
104 728 -6.068484 -3.610812 1.038 
120 728 -3.247957 0.260640 2.864 
136 728 -4.112091 1.095453 2.296 
152 728 -4.795037 1.803395 1.534 
168 728 -4.843297 1.714523 2.074 
184 728 -5.012192 1.048499 1.497 
200 728 -5.173302 0.983031 2.606 
216 728 -5.158067 0.786165 3.300 
232 728 -4.807248 0.646915 3.242 
248 728 -4.576287 0.651625 1.887 
264 728 -4.798187 0.409472 3.028 
280 728 -4.362026 1.153100 1.988 
296 728 -4.397373 1.281829 2.340 
312 728 -4.755844 1.345448 2.232 
328 728 -5.334539 1.301204 2.012 
344 728 -5.769129 0.751400 1.523 
360 728 -6.313784 0.034579 1.545 
376 728 -6.830880 -0.502530 1.385 
392 728 -6.793533 -0.106264 1.569 
408 728 -6.756187 0.290001 2.660 
424 728 -6.007572 0.303739 1.616 
440 728 -5.806924 0.085071 3.576 
456 728 -5.947164 0.187842 1.335 
472 728 -6.489987 0.233885 2.329 
488 728 -6.404504 0.140009 3.472 
504 728 -6.480694 0.155373 1.769 
520 728 -6.349356 0.153364 1.929 
536 728 -6.558196 0.381554 4.196 
552 728 -6.675909 0.451543 3.351 
568 728 -6.712619 0.248838 1.967 
584 728 -6.429578 0.041203 3.146 
600 728 -6.314731 0.112488 2.877 
616 728 -6.397541 -0.034999 3.009 
632 728 -6.601821 -0.166234 1.056 
648 728 -6.626940 -0.187548 1.082 
664 728 -6.694532 -0.172872 2.014 
680 728 -6.752443 -0.160867 2.406 
696 728 -6.779482 -0.283507 2.085 
712 728 -6.756822 -0.391939 2.006 
728 728 -6.847091 -0.296957 1.527 
744 728 -6.561595 -0.292734 3.864 
760 728 -6.646397 -0.313540 2.838 
776 728 -6.922392 -0.413929 2.580 
792 728 -6.903034 -0.445616 2.821 
808 728 -6.856066 -0.475754 2.369 
824 728 -6.838548 -0.412823 2.535 
840 728 -6.985221 -0.420983 3.597 
856 728 -6.849270 -0.646113 3.405 
872 728 -6.882808 -0.715470 3.380 
888 728 -7.170173 -0.827292 1.916 
904 728 -7.320252 -1.460464 1.454 
920 728 -7.595107 -2.399282 1.897 
936 728 -7.860422 -1.312883 1.924 
952 728 -8.347017 0.186294 1.565 
968 728 -8.085925 0.889085 1.528 
984 728 -3.063604 2.523666 2.267 
1000 728 -1.448351 3.099159 2.237 
1016 728 -7.456351 -1.388806 1.131 
1032 728 -7.566609 -1.726348 1.566 
1048 728 -8.074220 -1.895087 1.366 
1064 728 -7.697376 -1.545744 2.904 
1080 728 -7.261256 -1.426197 1.598 
1096 728 -7.277595 -1.574765 2.784 
1112 728 -7.209778 -1.318144 19.194 
1128 728 -7.078045 -1.290861 5.372 
1144 728 -7.341371 -0.801360 2.603 
1160 728 -9.199643 -2.199004 2.362 
1176 728 -12.794098 -2.834665 1.546 
1192 728 -16.339091 -0.768196 1.080 
1208 728 -15.510574 0.805948 1.992 
1224 728 -14.682058 2.380092 1.839 
1240 728 -8.143262 1.734393 1.730 
1256 728 3.460368 0.027402 1.043 
1272 728 2.523562 1.058288 1.009 
8 712 1.306683 -4.008338 1.167 
24 712 0.520089 -4.230941 1.158 
40 712 -0.551407 -0.323935 1.248 
56 712 -5.115534 -0.779062 1.021 
72 712 -11.798903 0.621747 1.409 
88 712 -11.170240 0.815845 1.034 
104 712 -10.541577 1.009943 1.712 
120 712 -5.296470 1.330673 16.010 
136 712 -4.756561 1.748218 7.279 
152 712 -4.783870 2.048057 2.773 
168 712 -4.733013 1.552264 1.572 
184 712 -4.670191 1.621784 2.777 
200 712 -4.913165 1.483532 1.313 
216 712 -4.652672 0.221611 2.127 
232 712 -4.799521 -0.429947 1.116 
248 712 -4.368262 0.508727 1.573 
264 712 -4.431399 0.479344 3.647 
280 712 -4.161876 1.178202 2.448 
296 712 -3.985383 1.093638 2.856 
312 712 -4.499156 1.106677 2.373 
328 712 -5.099530 1.004006 1.859 
344 712 -5.566596 1.019706 2.656 
360 712 -6.249060 0.256874 1.387 
376 712 -6.709565 -0.210469 1.238 
392 712 -6.973444 0.159213 1.918 
408 712 -6.771745 -0.042241 1.435 
424 712 -6.024624 0.289258 1.442 
440 712 -5.787731 0.303310 2.424 
456 712 -5.721283 0.478081 2.912 
472 712 -5.656662 0.441340 2.314 
488 712 -6.101347 0.126409 1.740 
504 712 -6.267364 0.118521 1.682 
520 712 -6.037445 -0.038809 2.357 
536 712 -6.216780 0.060977 2.291 
552 712 -6.356924 -0.007404 2.091 
568 712 -6.424885 -0.089009 2.913 
584 712 -6.279257 0.140317 2.481 
600 712 -6.139551 0.117959 1.957 
616 712 -6.213654 -0.066788 2.216 
632 712 -6.424029 -0.170512 1.100 
648 712 -6.614573 -0.146094 1.248 
664 712 -6.712188 -0.093643 2.061 
680 712 -6.767384 -0.108746 4.846 
696 712 -6.831739 -0.037934 2.758 
712 712 -7.009198 -0.179307 1.627 
728 712 -6.959140 -0.470948 1.479 
744 712 -6.436130 -0.498731 2.036 
760 712 -6.583504 -0.422746 2.913 
776 712 -6.881321 -0.457122 2.438 
792 712 -6.855287 -0.408090 3.092 
808 712 -6.702227 -0.342424 2.928 
824 712 -6.528375 -0.314029 2.079 
840 712 -6.788206 -0.423027 2.952 
856 712 -6.702785 -0.718700 3.825 
872 712 -6.793660 -0.705967 3.527 
888 712 -7.082207 -0.672235 1.527 
904 712 -7.249892 -1.405087 1.516 
920 712 -7.516490 -1.801019 2.161 
936 712 -7.659897 -1.442740 1.202 
952 712 -7.342521 -1.390389 1.919 
968 712 -7.149401 -1.715308 1.995 
984 712 -4.989456 0.874905 1.788 
1000 712 -7.109591 -1.434707 1.777 
1016 712 -7.295460 -1.124807 1.311 
1032 712 -7.483818 -1.476976 1.592 
1048 712 -7.865474 -1.575092 1.210 
1064 712 -7.609770 -1.210653 2.234 
1080 712 -7.295068 -1.240443 3.429 
1096 712 -7.096722 -1.422798 5.140 
1112 712 -6.986341 -1.417685 5.324 
1128 712 -6.742766 -1.502292 4.929 
1144 712 -6.824467 -1.512147 3.569 
1160 712 -8.019595 -1.686312 33.439 
1176 712 -11.012603 -0.789573 1.664 
1192 712 -13.570861 1.026270 1.273 
1208 712 -12.998333 1.509119 1.797 
1224 712 -12.425805 1.991969 1.251 
1240 712 -6.570964 1.185026 1.160 
1256 712 -0.716123 0.378084 1.246 
1272 712 1.070466 1.689469 1.146 
8 696 -0.349823 -5.387190 1.232 
24 696 -0.835321 -5.733684 1.236 
40 696 -2.364611 -4.040071 1.033 
56 696 -5.936678 -1.945695 1.016 
72 696 -12.975229 0.482897 1.104 
88 696 -10.748039 0.951011 1.039 
104 696 -8.520850 1.419125 1.392 
120 696 -6.185637 1.570476 12.648 
136 696 -5.138482 1.661599 8.119 
152 696 -4.974142 1.791259 2.268 
168 696 -4.743051 1.627703 1.201 
184 696 -4.780791 1.822676 1.830 
200 696 -4.889200 1.057308 1.322 
216 696 -5.569215 -0.509722 1.399 
232 696 -5.280282 -3.030272 1.843 
248 696 -4.920185 -3.821210 1.201 
264 696 -3.716689 0.849734 1.447 
280 696 -3.929309 0.938151 1.047 
296 696 -3.901325 0.450630 1.329 
312 696 -4.026136 0.504276 2.517 
328 696 -4.483496 0.446967 2.145 
344 696 -5.157008 0.298142 2.498 
360 696 -5.845010 -0.247411 1.585 
376 696 -6.233719 -0.472150 2.048 
392 696 -6.364430 -0.359936 2.220 
408 696 -6.313118 0.452569 1.612 
424 696 -6.041675 0.274776 1.359 
440 696 -5.768539 0.521548 2.622 
456 696 -5.495403 0.768319 2.658 
472 696 -5.666026 0.611303 2.362 
488 696 -6.084363 0.151110 2.055 
504 696 -6.054034 0.081669 2.197 
520 696 -5.913777 0.005314 3.891 
536 696 -5.945130 -0.231915 4.237 
552 696 -6.106932 -0.516966 4.755 
568 696 -6.191182 -0.558908 2.655 
584 696 -6.231332 -0.019217 3.971 
600 696 -6.226255 0.172122 1.756 
616 696 -6.289748 -0.018637 1.954 
632 696 -6.520487 -0.100575 3.378 
648 696 -6.676762 -0.066495 3.643 
664 696 -6.719395 0.062884 1.371 
680 696 -6.697165 -0.057830 3.016 
696 696 -6.684257 -0.164684 2.340 
712 696 -7.021061 0.034043 1.833 
728 696 -6.935165 -0.119905 1.783 
744 696 -6.493389 -0.421325 2.844 
760 696 -6.646993 -0.597417 1.993 
776 696 -6.764325 -0.596105 1.316 
792 696 -6.708596 -0.328758 3.544 
808 696 -6.504023 -0.228055 3.415 
824 696 -6.456319 -0.283698 2.962 
840 696 -6.545982 -0.566810 3.493 
856 696 -6.556929 -0.712503 3.261 
872 696 -6.659710 -0.655379 2.645 
888 696 -6.811322 -0.425201 3.441 
904 696 -7.100571 -0.781310 2.305 
920 696 -7.437873 -1.202756 4.174 
936 696 -7.459372 -1.572597 2.717 
952 696 -7.256591 -1.100570 1.902 
968 696 -7.023694 -0.740691 2.896 
984 696 -6.915308 -0.773856 2.046 
1000 696 -7.091989 -1.086958 1.072 
1016 696 -7.134570 -0.860808 1.246 
1032 696 -7.551865 -1.248124 1.716 
1048 696 -7.656729 -1.255097 2.499 
1064 696 -7.289717 -1.083718 2.573 
1080 696 -6.962815 -1.123219 2.894 
1096 696 -6.871438 -1.438688 3.108 
1112 696 -6.712854 -1.409623 3.170 
1128 696 -6.552699 -1.580661 3.567 
1144 696 -6.836064 -1.595656 2.282 
1160 696 -7.305459 -1.520769 2.047 
1176 696 -9.603223 -0.074146 1.004 
1192 696 -11.419934 1.476589 1.291 
1208 696 -10.173155 1.658226 1.295 
1224 696 -8.926375 1.839863 1.290 
1240 696 -4.937881 2.837724 1.120 
1256 696 -0.949386 3.835585 1.380 
1272 696 -0.382630 2.320651 1.340 
8 680 0.127612 -3.350663 1.058 
24 680 -0.900016 -3.563417 1.047 
40 680 -1.657428 -1.934456 1.210 
56 680 -2.792867 -1.548435 1.297 
72 680 -6.651755 -0.301126 1.273 
88 680 -9.673792 1.207471 1.033 
104 680 -8.367582 1.878195 1.418 
120 680 -5.902363 1.535322 3.255 
136 680 -5.328978 1.324301 2.835 
152 680 -5.362126 1.318678 2.756 
168 680 -4.770635 1.775082 1.608 
184 680 -4.880316 1.464700 2.499 
200 680 -5.229474 0.689762 1.368 
216 680 -6.521273 -7.816266 3.188 
232 680 -5.996691 -7.983707 2.165 
248 680 -5.472108 -8.151148 1.006 
264 680 -3.669231 0.065291 1.011 
280 680 -3.782287 0.029721 1.171 
296 680 -4.163484 0.016094 1.536 
312 680 -4.003097 -0.139558 3.107 
328 680 -4.274456 -0.100261 3.018 
344 680 -4.772199 -0.325614 2.352 
360 680 -5.312324 -0.786239 1.220 
376 680 -5.845526 -0.928003 1.899 
392 680 -5.777852 -0.353930 1.817 
408 680 -5.724215 0.365789 1.597 
424 680 -5.480742 0.688643 2.065 
440 680 -5.734854 0.682800 3.345 
456 680 -6.311761 0.605825 1.931 
472 680 -7.449536 0.458118 1.490 
488 680 -6.649234 0.411580 2.609 
504 680 -6.479349 0.330936 1.879 
520 680 -6.169703 0.150877 2.786 
536 680 -5.960306 -0.246107 3.598 
552 680 -6.078141 -0.906771 2.215 
568 680 -6.087935 -0.879253 2.180 
584 680 -6.215741 -0.259753 2.724 
600 680 -6.228277 0.127081 3.564 
616 680 -6.347122 0.056881 2.825 
632 680 -6.591126 -0.025724 3.872 
648 680 -6.730444 0.010190 4.927 
664 680 -6.702256 0.157511 2.210 
680 680 -6.623858 0.025135 3.251 
696 680 -6.615858 -0.237204 2.993 
712 680 -6.751591 -0.142998 1.199 
728 680 -6.725044 -0.160108 2.019 
744 680 -6.443176 -0.190406 2.858 
760 680 -6.617686 -0.491941 3.003 
776 680 -6.803186 -0.654147 1.879 
792 680 -6.643303 -0.396353 2.749 
808 680 -6.461813 -0.116123 3.608 
824 680 -6.544534 -0.202500 2.873 
840 680 -6.558429 -0.372657 4.991 
856 680 -6.598805 -0.362510 2.593 
872 680 -6.763104 -0.502272 2.079 
888 680 -6.703948 -0.472371 3.014 
904 680 -7.016649 -0.728901 1.741 
920 680 -7.229346 -0.988395 1.596 
936 680 -7.225237 -1.177762 2.362 
952 680 -6.990719 -1.051105 2.547 
968 680 -7.276488 -1.027544 2.266 
984 680 -7.050219 -0.704349 2.694 
1000 680 -7.074386 -0.739210 1.552 
1016 680 -7.208670 -0.844740 2.025 
1032 680 -7.315628 -1.011514 3.420 
1048 680 -7.259915 -1.055926 4.391 
1064 680 -6.846865 -1.015648 3.321 
1080 680 -6.618118 -1.153165 2.441 
1096 680 -6.857052 -1.372127 1.834 
1112 680 -6.653140 -1.336884 1.147 
1128 680 -6.362633 -1.659029 1.048 
1144 680 -6.847662 -1.679164 1.460 
1160 680 -7.292023 -1.376220 1.485 
1176 680 -8.480388 -0.365794 1.786 
1192 680 -10.386414 0.681918 1.780 
1208 680 -8.603256 2.371255 1.815 
1224 680 -7.809093 4.564876 1.285 
1240 680 -3.061972 12.318668 1.148 
1256 680 -2.448849 7.635250 1.345 
1272 680 -1.835725 2.951833 1.185 
8 664 0.605047 -1.314136 1.007 
24 664 -0.356323 0.337477 1.012 
40 664 -1.559520 1.321772 1.011 
56 664 -0.188620 -0.029767 1.343 
72 664 -0.152066 -0.528510 1.325 
88 664 -5.398527 1.975017 1.113 
104 664 -6.906520 2.771527 1.389 
120 664 -6.270425 1.912018 2.345 
136 664 -5.861693 1.522155 2.684 
152 664 -5.605054 1.547825 3.628 
168 664 -5.068216 1.877430 3.786 
184 664 -5.036271 2.061182 2.015 
200 664 -5.204309 1.603357 1.959 
216 664 -5.913375 -3.125844 1.789 
232 664 -5.297289 -3.622575 3.966 
248 664 -4.652489 -3.243357 1.288 
264 664 -3.665175 0.843279 1.963 
280 664 -3.685721 0.238471 3.114 
296 664 -4.356995 -0.723608 2.715 
312 664 -4.149049 -0.708173 3.879 
328 664 -4.594224 -0.550204 3.068 
344 664 -4.933957 -0.786216 2.617 
360 664 -5.287909 -1.009564 3.152 
376 664 -5.600511 -0.790736 1.046 
392 664 -5.604715 -0.033505 3.476 
408 664 -5.602320 0.428922 2.255 
424 664 -5.661831 0.527630 2.302 
440 664 -5.809632 0.690345 4.712 
456 664 -7.128119 0.443332 2.203 
472 664 -7.501508 0.310022 1.958 
488 664 -7.111314 0.339201 2.930 
504 664 -6.887838 0.464055 1.548 
520 664 -6.776038 0.176949 2.013 
536 664 -6.448259 -0.437893 2.617 
552 664 -6.112502 -1.082886 2.734 
568 664 -6.093830 -0.703731 2.199 
584 664 -6.116711 -0.277192 2.357 
600 664 -6.112433 -0.178326 2.584 
616 664 -6.230345 -0.105488 2.975 
632 664 -6.595385 0.063457 4.036 
648 664 -6.788425 -0.040468 2.270 
664 664 -6.760889 0.083619 2.182 
680 664 -6.592406 -0.010928 1.815 
696 664 -6.553910 -0.309438 2.735 
712 664 -6.554828 -0.229867 1.736 
728 664 -6.441739 -0.207121 1.648 
744 664 -6.372257 -0.210638 3.517 
760 664 -6.647327 -0.443461 3.356 
776 664 -6.903405 -0.610776 2.453 
792 664 -6.998945 -0.410402 3.774 
808 664 -6.950510 -0.223348 3.121 
824 664 -6.740779 -0.204324 3.170 
840 664 -6.591871 -0.113377 2.829 
856 664 -6.563091 -0.133418 2.522 
872 664 -6.433667 -0.338251 2.205 
888 664 -6.538870 -0.536686 2.286 
904 664 -6.957730 -0.720314 2.506 
920 664 -7.067316 -0.948257 2.261 
936 664 -7.018169 -0.992364 1.875 
952 664 -7.007583 -0.987763 1.943 
968 664 -7.085457 -0.910970 2.897 
984 664 -7.073862 -0.783019 4.845 
1000 664 -7.090347 -0.851244 16.358 
1016 664 -6.982845 -0.855134 6.075 
1032 664 -6.828930 -0.896207 2.704 
1048 664 -6.787300 -1.001279 3.198 
1064 664 -6.800392 -1.033230 2.112 
1080 664 -6.758290 -1.305898 2.377 
1096 664 -6.932406 -1.130163 1.553 
1112 664 -6.721428 -1.141570 1.015 
1128 664 -6.515141 -1.477324 1.192 
1144 664 -6.779518 -1.649118 2.846 
1160 664 -7.093819 -1.579851 7.306 
1176 664 -7.744366 -1.290825 2.183 
1192 664 -8.092712 -0.650037 2.010 
1208 664 -7.458792 1.393355 1.547 
1224 664 -7.085411 6.705823 1.000 
1240 664 -4.311628 12.865326 1.277 
1256 664 -3.132682 9.832980 1.033 
1272 664 -1.893668 8.840962 1.016 
8 648 7.463728 1.987271 1.308 
24 648 3.168701 5.458478 1.390 
40 648 0.622921 6.470137 1.196 
56 648 1.650426 3.678760 1.038 
72 648 1.700927 0.993561 1.053 
88 648 -2.888284 3.248000 1.107 
104 648 -5.445459 3.664858 1.027 
120 648 -6.478825 2.438845 1.116 
136 648 -6.456613 2.270986 1.067 
152 648 -6.275911 2.209912 1.894 
168 648 -5.225021 2.371198 1.510 
184 648 -5.318563 2.542197 1.467 
200 648 -5.382506 2.775533 2.217 
216 648 -5.305477 1.564578 2.701 
232 648 -4.597888 0.738557 1.290 
248 648 -3.832870 1.664434 1.194 
264 648 -3.661120 1.621267 2.367 
280 648 -3.959551 0.513369 2.174 
296 648 -4.671165 -1.430993 2.243 
312 648 -4.388235 -1.313803 2.500 
328 648 -4.871301 -1.244111 2.412 
344 648 -4.991560 -1.360340 1.668 
360 648 -5.079710 -1.418291 1.277 
376 648 -5.571586 -0.811532 1.819 
392 648 -5.792099 -0.162795 4.040 
408 648 -5.854200 0.211528 2.021 
424 648 -5.842920 0.366617 2.149 
440 648 -5.979632 0.349620 2.850 
456 648 -6.701357 -0.102402 1.653 
472 648 -6.952415 -0.324379 1.502 
488 648 -6.909880 0.109772 2.119 
504 648 -6.757812 0.346069 1.489 
520 648 -7.053676 -0.039692 2.322 
536 648 -6.615310 -0.466874 1.912 
552 648 -6.483489 -0.886355 1.778 
568 648 -6.311785 -0.672066 2.078 
584 648 -6.072148 -0.272554 2.772 
600 648 -6.096071 -0.266625 3.249 
616 648 -6.133325 -0.263440 3.203 
632 648 -6.412051 -0.115946 2.408 
648 648 -6.618597 -0.107898 2.041 
664 648 -6.617694 -0.074245 2.561 
680 648 -6.590162 0.088367 2.573 
696 648 -6.509707 -0.189303 3.960 
712 648 -6.462766 -0.255642 1.911 
728 648 -6.283734 -0.108558 1.900 
744 648 -6.221128 -0.199218 3.149 
760 648 -6.472378 -0.398644 5.546 
776 648 -6.853141 -0.643206 3.947 
792 648 -7.089677 -0.520045 2.570 
808 648 -7.072120 -0.373605 3.740 
824 648 -6.867515 -0.243939 3.470 
840 648 -6.682789 -0.337235 2.729 
856 648 -6.587977 -0.215957 2.072 
872 648 -6.353970 -0.376989 2.154 
888 648 -6.403223 -0.682068 2.326 
904 648 -6.973691 -0.769876 2.840 
920 648 -6.935120 -0.893155 4.127 
936 648 -6.884985 -0.772618 1.713 
952 648 -6.914221 -0.803072 1.323 
968 648 -6.940861 -0.870493 1.497 
984 648 -6.815043 -0.854196 4.784 
1000 648 -6.776856 -0.846863 1.705 
1016 648 -6.809399 -1.046430 2.269 
1032 648 -6.483505 -1.115154 4.692 
1048 648 -6.360699 -1.027274 4.400 
1064 648 -6.618524 -1.195509 2.725 
1080 648 -6.868090 -1.222348 1.881 
1096 648 -7.149435 -1.108495 2.305 
1112 648 -6.787499 -1.016872 2.702 
1128 648 -6.667649 -1.295618 3.392 
1144 648 -6.791020 -1.608448 2.734 
1160 648 -6.839736 -1.405469 5.529 
1176 648 -7.053847 -1.536941 1.858 
1192 648 -6.942984 -1.328345 1.056 
1208 648 -6.845864 -0.218668 1.564 
1224 648 -6.579862 5.691227 1.042 
1240 648 -5.634375 11.997556 1.126 
1256 648 -3.250691 13.681782 1.171 
1272 648 -1.951611 14.730092 1.135 
8 632 7.725708 11.146636 1.086 
24 632 4.981401 11.029104 1.088 
40 632 2.908280 11.794335 1.030 
56 632 1.636503 2.014028 1.069 
72 632 3.361642 4.356160 1.281 
88 632 -0.259152 4.771083 1.086 
104 632 -5.899150 2.944251 1.148 
120 632 -6.470241 2.478300 1.384 
136 632 -6.926711 2.602501 1.067 
152 632 -6.587551 2.613820 1.543 
168 632 -5.985331 2.469384 1.391 
184 632 -5.600856 3.023212 1.081 
200 632 -5.622150 2.721281 1.703 
216 632 -5.334590 2.437390 2.253 
232 632 -5.209612 0.796209 1.789 
248 632 -4.813554 1.284275 1.310 
264 632 -4.535480 1.741031 1.446 
280 632 -4.794258 -0.118000 1.537 
296 632 -5.150235 -2.087717 2.477 
312 632 -4.568436 -1.742813 2.888 
328 632 -4.549010 -1.414958 2.482 
344 632 -5.201400 -1.799502 1.173 
360 632 -5.352658 -1.333606 1.266 
376 632 -5.406601 -1.117811 1.612 
392 632 -6.035142 -0.504495 2.163 
408 632 -6.465524 -0.068939 2.072 
424 632 -6.222342 0.076083 1.900 
440 632 -6.166492 0.090747 2.652 
456 632 -6.103212 -0.163607 2.946 
472 632 -6.094865 -0.393040 2.341 
488 632 -6.317488 -0.017849 2.944 
504 632 -6.635259 0.265230 1.655 
520 632 -6.968875 -0.104091 1.797 
536 632 -6.620668 -0.773433 2.674 
552 632 -6.664595 -0.743526 2.174 
568 632 -6.502278 -0.426699 2.088 
584 632 -6.225307 -0.122426 2.689 
600 632 -6.226760 -0.180159 2.342 
616 632 -6.212344 -0.178825 3.339 
632 632 -6.315181 -0.158330 2.384 
648 632 -6.454052 -0.170966 3.434 
664 632 -6.493771 0.010149 3.084 
680 632 -6.520337 0.063029 2.498 
696 632 -6.454667 -0.108085 2.546 
712 632 -6.416395 -0.240560 2.882 
728 632 -6.466678 -0.277279 3.023 
744 632 -6.535795 -0.260257 2.726 
760 632 -6.585023 -0.290082 2.651 
776 632 -6.631037 -0.581720 2.529 
792 632 -6.546627 -0.502434 2.188 
808 632 -6.829853 -0.601898 2.450 
824 632 -6.816052 -0.567300 2.411 
840 632 -6.622367 -0.414175 2.705 
856 632 -6.612864 -0.298496 2.492 
872 632 -6.450490 -0.404981 2.634 
888 632 -6.722109 -0.738162 2.462 
904 632 -7.233256 -0.971945 1.907 
920 632 -7.387547 -0.828033 4.600 
936 632 -7.595584 -0.953670 9.030 
952 632 -7.041170 -0.923822 1.723 
968 632 -6.515975 -0.699836 1.607 
984 632 -6.379913 -0.732772 2.263 