TITLE = "B00200"
VARIABLES = "x", "y", "u", "v", "sn"
ZONE T="Frame 0", I=80, J=50
8 792 0.000000 -0.000000 1.103 
24 792 7.398155 10.772173 1.192 
40 792 0.584375 15.182482 1.124 
56 792 -2.778427 16.625302 1.061 
72 792 -4.843465 15.077116 1.087 
88 792 0.258161 13.672895 1.014 
104 792 5.359788 12.268674 1.120 
120 792 10.461415 10.864454 1.139 
136 792 10.887043 6.698596 1.080 
152 792 1.615651 -2.292034 1.134 
168 792 -1.488227 -0.111276 1.008 
184 792 -4.848445 2.817235 1.351 
200 792 -5.560125 2.790876 1.419 
216 792 -6.271806 2.764518 2.101 
232 792 -6.017356 1.302109 1.077 
248 792 -5.921564 1.088641 1.790 
264 792 -5.825773 0.875173 2.105 
280 792 -5.617005 1.346831 2.422 
296 792 -5.138107 1.790499 2.219 
312 792 -5.082337 1.958955 1.525 
328 792 -5.289502 2.205500 1.441 
344 792 -5.147152 2.170045 1.529 
360 792 -5.606807 1.849749 1.716 
376 792 -6.219103 1.302112 2.399 
392 792 -6.238342 0.909175 3.078 
408 792 -6.348532 1.088035 5.654 
424 792 -6.545113 1.188232 1.484 
440 792 -6.762427 1.157263 1.722 
456 792 -6.962321 0.774318 1.821 
472 792 -6.808577 0.345763 1.781 
488 792 -6.518810 -0.110791 1.548 
504 792 -6.200099 -0.389669 2.881 
520 792 -6.037110 -0.078381 2.501 
536 792 -5.988255 0.595538 2.595 
552 792 -5.331971 0.609910 3.360 
568 792 -4.675687 0.624282 1.995 
584 792 -5.028960 0.858931 2.845 
600 792 -6.298592 0.973694 3.188 
616 792 -6.777589 0.150617 3.930 
632 792 -6.966751 -0.843302 3.559 
648 792 -6.989832 -1.210878 1.956 
664 792 -7.104984 -1.408074 2.679 
680 792 -7.201597 -1.716800 3.264 
696 792 -6.991079 -2.088406 2.204 
712 792 -6.752297 -2.814812 2.508 
728 792 -6.752507 -3.404472 2.429 
744 792 -7.029316 -3.005997 2.718 
760 792 -6.766775 -3.114574 2.466 
776 792 -6.271443 -3.135087 2.340 
792 792 -5.597595 -1.864207 3.062 
808 792 -5.131486 -0.565535 4.386 
824 792 -5.376787 0.114732 2.124 
840 792 -5.190988 0.463973 2.034 
856 792 -4.805028 0.783261 1.632 
872 792 -4.183133 1.410328 2.521 
888 792 -3.958003 2.015145 3.532 
904 792 -4.172683 2.532966 2.858 
920 792 -4.990768 2.806007 1.988 
936 792 -6.028049 3.392939 2.722 
952 792 -7.045455 4.280786 1.452 
968 792 -7.526165 4.979498 1.365 
984 792 -7.816287 4.530280 1.735 
1000 792 -8.658916 3.806574 1.370 
1016 792 -9.519977 2.728729 1.621 
1032 792 -9.687178 2.050951 2.709 
1048 792 -9.593160 1.464184 2.068 
1064 792 -9.449617 1.086382 2.619 
1080 792 -10.456948 0.732766 2.251 
1096 792 -10.296708 1.028210 2.793 
1112 792 -6.329697 1.528845 1.532 
1128 792 -1.361096 2.081983 1.139 
1144 792 -4.220091 9.208754 1.167 
1160 792 -7.079087 16.335525 1.122 
1176 792 -9.938082 23.462296 1.197 
1192 792 -6.414766 20.784561 1.003 
1208 792 -2.891449 18.106825 1.419 
1224 792 1.657962 10.291109 1.009 
1240 792 6.207374 2.475392 1.080 
1256 792 3.036039 1.264834 1.028 
1272 792 -0.135297 0.054276 1.065 
8 776 6.215771 8.208436 1.069 
24 776 3.560716 15.519720 1.159 
40 776 -2.910825 19.555923 1.196 
56 776 -7.072714 17.507298 1.062 
72 776 -6.812668 16.560225 1.187 
88 776 -12.161438 12.525393 1.029 
104 776 -1.599395 11.758861 1.097 
120 776 8.962648 10.992329 1.162 
136 776 5.059079 3.544205 1.155 
152 776 -0.224812 -1.458320 1.112 
168 776 -2.727819 0.586291 1.023 
184 776 -5.121596 2.542944 1.349 
200 776 -6.460377 3.157881 1.434 
216 776 -6.510546 2.421007 2.239 
232 776 -6.141611 1.293063 1.093 
248 776 -5.591771 0.479397 1.764 
264 776 -5.660463 1.056135 2.132 
280 776 -5.376884 1.658062 2.484 
296 776 -5.141652 1.961884 2.288 
312 776 -5.067705 2.025444 1.533 
328 776 -5.283130 2.191883 1.472 
344 776 -5.210925 2.149962 1.560 
360 776 -5.646951 1.851524 1.759 
376 776 -6.239522 1.341137 2.443 
392 776 -6.251235 1.002061 3.183 
408 776 -6.404101 1.175490 6.097 
424 776 -6.544491 1.369669 1.602 
440 776 -6.703022 1.409902 1.696 
456 776 -6.900657 1.088682 1.813 
472 776 -6.750894 0.615264 1.823 
488 776 -6.454385 0.094592 1.563 
504 776 -6.122344 -0.235919 2.994 
520 776 -5.988439 0.036353 2.468 
536 776 -5.922389 0.601234 2.646 
552 776 -5.490609 0.753302 3.160 
568 776 -4.776904 0.587916 1.884 
584 776 -5.059127 0.831877 2.703 
600 776 -6.118146 0.948938 3.144 
616 776 -6.544576 0.056112 4.143 
632 776 -6.733928 -0.986109 3.349 
648 776 -6.858586 -1.399084 1.903 
664 776 -6.968056 -1.546644 2.660 
680 776 -7.074083 -1.861060 3.117 
696 776 -6.829246 -2.263590 2.203 
712 776 -6.507346 -2.889323 2.481 
728 776 -6.382825 -3.424452 2.755 
744 776 -6.518046 -3.160711 3.098 
760 776 -6.183897 -3.248213 2.767 
776 776 -5.722415 -3.058025 2.382 
792 776 -5.064734 -1.740465 2.999 
808 776 -4.682356 -0.452426 4.283 
824 776 -4.796641 0.263536 2.195 
840 776 -5.006785 0.445107 2.031 
856 776 -4.411866 0.860684 1.778 
872 776 -4.061817 1.355439 2.389 
888 776 -3.899070 1.932481 3.374 
904 776 -4.246593 2.449664 2.727 
920 776 -5.035119 2.795673 1.964 
936 776 -6.000043 3.360655 2.748 
952 776 -6.941697 4.187074 1.415 
968 776 -7.468239 4.836001 1.287 
984 776 -7.862380 4.453865 1.770 
1000 776 -8.650970 3.696773 1.464 
1016 776 -9.354688 2.678442 1.614 
1032 776 -9.456344 1.942517 2.687 
1048 776 -9.407152 1.314858 2.287 
1064 776 -9.238389 0.876982 2.323 
1080 776 -10.071091 0.510757 2.290 
1096 776 -9.684607 0.888589 2.795 
1112 776 -5.717406 1.304820 1.637 
1128 776 -1.257212 1.732520 1.430 
1144 776 -1.138997 1.584806 1.008 
1160 776 -1.020783 1.437092 1.110 
1176 776 -5.899656 13.975400 1.026 
1192 776 -5.076224 13.355525 1.001 
1208 776 -3.892229 13.016903 1.474 
1224 776 2.425777 5.928547 1.060 
1240 776 5.381222 2.832105 1.129 
1256 776 -1.257252 -4.789791 1.015 
1272 776 -0.234261 0.198677 1.015 
8 760 0.984735 7.247041 1.024 
24 760 -2.676305 13.873839 1.020 
40 760 -10.289376 18.053510 1.200 
56 760 -11.367001 18.389295 1.335 
72 760 -4.583643 16.017570 1.065 
88 760 -5.106798 11.045158 1.326 
104 760 -1.391723 9.268175 1.227 
120 760 2.323351 7.491192 1.052 
136 760 0.478425 2.180862 1.051 
152 760 -2.055445 -0.526808 1.144 
168 760 -3.430910 1.181830 1.416 
184 760 -5.256901 2.149975 2.864 
200 760 -6.438058 2.329982 2.765 
216 760 -6.374806 1.284608 1.173 
232 760 -5.861332 1.063105 1.994 
248 760 -5.122345 0.854257 1.709 
264 760 -5.056190 1.356983 2.595 
280 760 -5.136763 1.969293 2.288 
296 760 -5.114336 2.298000 1.898 
312 760 -5.302036 2.340722 1.943 
328 760 -5.358395 2.275086 3.629 
344 760 -5.457460 2.167470 2.130 
360 760 -5.790161 1.640411 2.447 
376 760 -6.119526 1.307291 2.611 
392 760 -6.098054 1.078694 2.209 
408 760 -6.174232 1.040864 4.310 
424 760 -6.431696 1.558445 1.365 
440 760 -6.388216 1.735100 2.035 
456 760 -6.568036 1.582438 2.179 
472 760 -6.548149 0.886481 2.319 
488 760 -6.047985 0.185795 1.440 
504 760 -5.671219 -0.021907 2.075 
520 760 -5.691834 0.158173 2.786 
536 760 -5.733015 0.614312 2.713 
552 760 -5.502842 0.600630 2.700 
568 760 -4.937585 0.625380 2.367 
584 760 -5.434580 0.832080 2.349 
600 760 -5.575240 1.176205 1.356 
616 760 -5.765215 0.013960 2.646 
632 760 -6.191839 -1.028924 2.420 
648 760 -6.546829 -1.597390 2.487 
664 760 -6.701676 -1.662965 2.603 
680 760 -6.788510 -1.891344 2.756 
696 760 -6.502856 -2.254020 2.430 
712 760 -6.154834 -2.680903 2.288 
728 760 -6.003902 -3.023751 3.492 
744 760 -5.871206 -3.005765 1.938 
760 760 -5.035890 -2.779882 2.980 
776 760 -4.453254 -2.697886 2.141 
792 760 -4.281334 -1.521599 2.275 
808 760 -3.952496 -0.081176 3.591 
824 760 -3.448014 0.660477 1.607 
840 760 -3.027017 1.039581 1.655 
856 760 -3.586922 0.875036 2.577 
872 760 -3.625646 1.073408 2.280 
888 760 -4.015655 1.784289 6.902 
904 760 -4.443851 2.305675 2.951 
920 760 -4.831776 2.371771 3.580 
936 760 -5.753176 3.022020 2.326 
952 760 -6.665731 3.872991 1.756 
968 760 -7.405432 4.527988 1.210 
984 760 -7.733760 3.943354 1.857 
1000 760 -8.257447 3.191931 2.014 
1016 760 -8.772027 2.735561 1.778 
1032 760 -9.097127 2.111960 3.784 
1048 760 -8.729319 1.308809 6.558 
1064 760 -8.682958 0.818870 1.749 
1080 760 -9.205668 0.264299 2.677 
1096 760 -7.652369 0.556865 2.355 
1112 760 -4.158094 0.991908 2.558 
1128 760 -1.286878 1.576764 34.011 
1144 760 -1.093032 2.299212 3.574 
1160 760 -1.875810 3.583188 1.070 
1176 760 -1.861230 4.488503 1.349 
1192 760 -1.398360 3.587378 1.114 
1208 760 -1.895979 2.717985 1.046 
1224 760 -2.167512 0.533453 1.157 
1240 760 2.646158 4.082051 1.017 
1256 760 -0.100267 -2.549125 1.062 
1272 760 -0.333225 0.343077 1.112 
8 744 1.446707 3.896461 1.087 
24 744 -4.973039 9.028020 1.152 
40 744 -7.027374 11.547702 1.049 
56 744 -8.248998 13.291562 1.068 
72 744 -3.550287 12.669394 1.117 
88 744 1.947842 9.564924 1.063 
104 744 -0.729865 6.447917 1.042 
120 744 -3.407573 3.330911 1.226 
136 744 -3.694274 0.830417 1.134 
152 744 -3.886079 0.404705 1.571 
168 744 -5.290541 1.328982 2.342 
184 744 -5.937732 2.036339 4.375 
200 744 -6.157879 1.957964 4.043 
216 744 -6.208096 1.281418 1.610 
232 744 -5.476282 1.208087 1.221 
248 744 -4.621693 0.939391 1.488 
264 744 -4.766277 1.351640 1.975 
280 744 -5.050820 2.113791 1.363 
296 744 -5.404848 2.495682 1.468 
312 744 -5.710541 2.488727 1.521 
328 744 -5.736798 2.536494 1.054 
344 744 -5.805011 2.413287 2.128 
360 744 -6.039377 1.891004 1.806 
376 744 -5.820400 1.479807 2.286 
392 744 -5.689639 0.924440 2.213 
408 744 -5.476915 0.821539 3.469 
424 744 -5.582794 1.129614 3.027 
440 744 -5.518283 1.453360 2.234 
456 744 -5.897968 1.390240 2.319 
472 744 -6.249822 0.946172 2.852 
488 744 -5.639825 0.288706 2.027 
504 744 -5.372063 0.151479 1.241 
520 744 -5.286094 0.375902 1.168 
536 744 -5.404518 0.467759 2.837 
552 744 -5.255800 0.471671 2.861 
568 744 -5.063523 0.729724 3.383 
584 744 -4.917940 1.301857 1.408 
600 744 -5.131690 1.420599 1.003 
616 744 -5.154716 0.302898 1.704 
632 744 -5.700051 -1.107291 3.534 
648 744 -6.168072 -1.598034 2.624 
664 744 -6.394773 -1.679238 4.198 
680 744 -6.376724 -1.876843 1.929 
696 744 -6.118872 -2.205812 2.541 
712 744 -5.604047 -2.337304 1.384 
728 744 -5.130010 -2.374638 2.799 
744 744 -4.977428 -2.451001 1.957 
760 744 -4.330038 -2.140455 2.103 
776 744 -3.962023 -1.968810 2.693 
792 744 -3.844154 -1.004268 3.582 
808 744 -3.352819 0.349427 3.427 
824 744 -2.989511 0.964491 1.771 
840 744 -2.878401 1.241553 3.427 
856 744 -3.228074 1.126601 2.554 
872 744 -3.343579 1.070637 1.801 
888 744 -3.774045 1.510583 2.082 
904 744 -4.216762 2.008052 2.350 
920 744 -4.673660 2.191448 2.148 
936 744 -5.340248 2.522188 2.100 
952 744 -6.204349 3.275670 1.663 
968 744 -7.019257 4.194709 1.671 
984 744 -7.401239 3.453835 1.515 
1000 744 -7.997671 3.222785 2.997 
1016 744 -7.746591 2.760502 1.662 
1032 744 -8.227440 2.187922 2.890 
1048 744 -8.085713 1.452173 2.695 
1064 744 -8.215337 0.905949 1.973 
1080 744 -8.417569 0.466364 1.614 
1096 744 -7.378093 0.530442 2.161 
1112 744 -4.347483 0.705744 2.292 
1128 744 -2.236864 0.906876 6.598 
1144 744 -2.487234 0.855333 2.843 
1160 744 -2.589112 1.810358 1.067 
1176 744 -2.019999 2.487248 1.070 
1192 744 -1.744157 1.268598 1.424 
1208 744 -2.491072 1.844649 1.073 
1224 744 -3.083202 2.645725 1.210 
1240 744 1.254955 -0.290288 1.034 
1256 744 1.056717 -0.308459 1.563 
1272 744 -0.432189 0.487478 1.609 
8 728 5.242054 0.275011 1.261 
24 728 -0.007742 3.778110 1.229 
40 728 -3.765373 5.041895 1.005 
56 728 -2.845433 6.651698 1.165 
72 728 -1.184146 7.015688 1.030 
88 728 1.795640 5.249836 1.128 
104 728 -3.735560 2.408537 1.013 
120 728 -3.397439 1.112770 1.045 
136 728 -4.632588 0.335403 1.011 
152 728 -5.373663 0.985273 2.076 
168 728 -6.283563 1.707575 2.648 
184 728 -6.515510 1.864736 2.793 
200 728 -6.101132 1.707330 4.169 
216 728 -5.523908 1.538986 1.594 
232 728 -4.713086 1.347511 1.215 
248 728 -4.588391 1.210177 1.742 
264 728 -4.605513 1.256531 1.747 
280 728 -4.933571 1.899793 1.914 
296 728 -5.441849 2.635273 1.650 
312 728 -5.763882 2.487865 1.805 
328 728 -5.619281 2.552685 1.622 
344 728 -5.423203 2.568693 1.508 
360 728 -5.497258 1.983704 1.846 
376 728 -5.279111 1.342103 1.825 
392 728 -5.116348 0.887597 2.460 
408 728 -5.000091 0.845379 2.407 
424 728 -5.092076 0.753285 3.238 
440 728 -4.899271 0.921271 1.719 
456 728 -5.174223 1.034183 2.157 
472 728 -5.455025 0.780457 2.935 
488 728 -5.401984 0.374874 2.788 
504 728 -5.316713 0.165535 1.668 
520 728 -5.289578 0.279906 2.371 
536 728 -5.373824 0.344350 1.766 
552 728 -4.975591 0.476230 1.795 
568 728 -4.888700 0.757224 2.081 
584 728 -4.869707 1.317933 2.183 
600 728 -4.691611 1.548441 1.538 
616 728 -4.804067 0.717454 1.644 
632 728 -5.445480 -0.840453 2.365 
648 728 -6.051563 -1.490544 2.604 
664 728 -6.214140 -1.649068 2.994 
680 728 -6.148788 -1.726712 1.912 
696 728 -5.920999 -1.942644 2.089 
712 728 -5.418957 -1.953298 1.796 
728 728 -5.011975 -1.918036 3.157 
744 728 -4.677631 -2.044535 3.954 
760 728 -4.132431 -1.752080 2.314 
776 728 -3.811887 -1.227723 3.551 
792 728 -3.759677 -0.524144 2.581 
808 728 -3.344930 0.432443 3.245 
824 728 -3.107269 0.886984 4.970 
840 728 -3.160776 1.107647 3.304 
856 728 -3.153090 1.120254 2.411 
872 728 -3.357781 1.029268 1.232 
888 728 -3.659047 1.315701 3.141 
904 728 -4.134540 1.572242 2.595 
920 728 -4.477289 1.589634 2.187 
936 728 -4.979991 1.528921 1.129 
952 728 -5.296503 2.251481 1.103 
968 728 -5.844954 3.116655 2.850 
984 728 -6.462322 3.403584 2.451 
1000 728 -7.527408 3.300352 2.741 
1016 728 -7.490116 2.861835 4.206 
1032 728 -7.295359 2.239234 2.148 
1048 728 -7.266495 1.517455 2.602 
1064 728 -7.566487 1.166523 2.817 
1080 728 -8.134617 0.740351 3.244 
1096 728 -8.209823 0.677887 1.995 
1112 728 -6.288962 0.561762 1.729 
1128 728 -5.127658 0.378277 1.028 
1144 728 -4.866174 0.138111 1.018 
1160 728 -4.300667 0.702090 1.181 
1176 728 -2.449288 -0.700715 1.051 
1192 728 -2.231701 0.751782 1.107 
1208 728 -2.014114 2.204278 1.015 
1224 728 -0.837248 0.803506 1.404 
1240 728 2.017450 -0.693822 1.130 
1256 728 1.885552 0.571476 1.195 
1272 728 0.616524 0.757273 1.110 
8 712 6.047112 -5.088008 1.782 
24 712 4.262769 -0.239862 1.772 
40 712 2.158365 -0.445080 1.010 
56 712 2.601583 2.185639 1.074 
72 712 0.886307 2.322701 1.025 
88 712 0.805253 1.541644 1.227 
104 712 -0.254088 0.391116 1.155 
120 712 -3.361144 -0.587571 1.096 
136 712 -5.570901 -0.159611 1.361 
152 712 -6.100405 1.066806 1.542 
168 712 -6.540055 1.583352 1.601 
184 712 -6.629919 1.723740 1.983 
200 712 -5.705393 1.701619 1.275 
216 712 -5.002108 1.623615 1.406 
232 712 -4.441758 1.746547 2.401 
248 712 -4.519378 1.649121 1.653 
264 712 -4.548149 1.668448 1.234 
280 712 -4.855653 2.290032 1.656 
296 712 -5.488141 1.916582 1.587 
312 712 -5.759774 2.005138 2.771 
328 712 -5.138464 2.127751 1.796 
344 712 -4.882726 2.588392 1.356 
360 712 -4.821670 2.012760 2.291 
376 712 -4.893049 1.660084 1.765 
392 712 -5.106233 1.284211 1.761 
408 712 -5.048727 0.940445 1.601 
424 712 -4.866062 0.612548 2.249 
440 712 -4.703421 0.977236 2.804 
456 712 -4.539856 1.133181 2.131 
472 712 -4.571097 0.944091 3.803 
488 712 -5.223227 -0.183255 1.410 
504 712 -5.344160 -0.214493 1.667 
520 712 -5.365804 0.049956 2.358 
536 712 -5.422827 0.021991 1.299 
552 712 -5.155682 -0.130002 1.212 
568 712 -4.827523 0.255286 4.103 
584 712 -4.807786 0.891164 3.986 
600 712 -4.562056 1.030931 2.900 
616 712 -4.754273 0.342796 2.271 
632 712 -5.118643 -0.675348 1.937 
648 712 -5.767109 -1.603462 2.166 
664 712 -6.113864 -1.627785 1.695 
680 712 -6.196139 -1.686192 2.171 
696 712 -5.954335 -1.680768 2.452 
712 712 -5.837148 -1.679184 2.067 
728 712 -5.244504 -1.650176 5.432 
744 712 -4.684263 -1.691039 3.344 
760 712 -4.158319 -1.293643 1.995 
776 712 -4.099344 -0.768672 2.869 
792 712 -3.679014 0.005333 1.958 
808 712 -3.070134 0.618492 1.040 
824 712 -2.720749 0.919080 1.317 
840 712 -2.946650 0.986665 3.352 
856 712 -2.928598 0.850851 4.635 
872 712 -3.157078 0.745839 2.866 
888 712 -3.526812 0.882110 1.440 
904 712 -3.919755 0.864190 2.293 
920 712 -4.220580 0.791636 3.547 
936 712 -4.505277 0.936664 1.180 
952 712 -4.744864 1.811676 1.656 
968 712 -5.002110 2.732547 3.601 
984 712 -5.523404 3.353334 2.961 
1000 712 -6.708870 3.231294 1.447 
1016 712 -7.173263 2.711167 2.182 
1032 712 -7.012942 2.084592 2.089 
1048 712 -7.125341 1.747867 1.565 
1064 712 -7.132469 1.329052 1.904 
1080 712 -7.793647 0.777919 2.556 
1096 712 -8.298543 0.458343 2.330 
1112 712 -8.230441 0.417780 1.166 
1128 712 -8.180314 0.356641 1.050 
1144 712 -6.930200 0.080938 1.989 
1160 712 -6.012222 -0.406179 1.088 
1176 712 -2.876630 -3.197180 1.470 
1192 712 -1.287404 -3.156815 1.904 
1208 712 0.301821 -3.116451 1.095 
1224 712 1.408706 -1.038713 1.044 
1240 712 3.458236 -1.284439 1.486 
1256 712 2.546114 0.505989 1.621 
1272 712 1.665238 1.027069 1.663 
8 696 6.852171 -10.451027 1.044 
24 696 2.870500 -9.014586 1.017 
40 696 1.348972 -2.079211 1.028 
56 696 1.361740 -0.479134 1.119 
72 696 0.944059 0.090300 1.042 
88 696 1.011461 -0.350367 1.406 
104 696 -1.343440 -0.756917 1.407 
120 696 -3.979319 -0.909887 1.976 
136 696 -5.424078 -0.014230 1.912 
152 696 -6.178777 1.225764 1.583 
168 696 -6.487093 1.424622 1.580 
184 696 -6.117027 1.578750 1.588 
200 696 -5.181470 1.723884 1.420 
216 696 -4.914151 1.935527 2.112 
232 696 -4.841212 1.863783 3.068 
248 696 -4.563540 1.932134 1.243 
264 696 -4.548273 1.999291 1.124 
280 696 -4.479010 2.153528 1.335 
296 696 -5.553952 1.732525 1.259 
312 696 -5.455486 1.719215 1.863 
328 696 -4.690585 2.000984 1.240 
344 696 -4.779880 2.345768 1.679 
360 696 -4.763846 2.149844 2.141 
376 696 -4.696012 1.959760 2.313 
392 696 -4.875551 1.735149 2.354 
408 696 -5.061270 1.290435 2.068 
424 696 -5.056681 1.055395 1.596 
440 696 -4.800302 1.294331 3.500 
456 696 -4.219931 1.452614 4.355 
472 696 -4.168099 1.220843 3.463 
488 696 -4.723841 0.212755 1.442 
504 696 -5.031237 -0.174122 1.710 
520 696 -5.227235 -0.132893 1.970 
536 696 -5.339390 -0.388239 1.191 
552 696 -5.072254 -0.205679 1.036 
568 696 -4.745529 -0.238723 3.172 
584 696 -4.562277 0.055064 2.112 
600 696 -4.634555 0.014325 1.587 
616 696 -4.805733 -0.358939 2.106 
632 696 -5.174684 -1.017410 2.103 
648 696 -5.651826 -1.708508 3.168 
664 696 -6.082117 -1.775703 1.306 
680 696 -6.152325 -1.809029 1.184 
696 696 -5.699096 -1.768958 1.489 
712 696 -5.503520 -1.529227 3.035 
728 696 -5.042691 -1.417460 3.627 
744 696 -4.922640 -1.383997 2.733 
760 696 -4.569670 -1.068504 1.576 
776 696 -4.268427 -0.179083 1.918 
792 696 -3.716179 0.474701 1.847 
808 696 -3.051692 0.801268 1.790 
824 696 -2.631251 0.950241 2.261 
840 696 -2.429960 0.804018 3.339 
856 696 -2.631404 0.563960 2.581 
872 696 -2.929283 0.345472 3.457 
888 696 -3.325279 0.192645 1.850 
904 696 -3.545823 0.087387 2.273 
920 696 -3.755037 0.095796 1.261 
936 696 -4.022385 0.553971 1.201 
952 696 -4.423815 1.576809 1.942 
968 696 -4.305063 2.587426 4.392 
984 696 -4.738912 2.983767 4.843 
1000 696 -5.777928 2.793557 2.008 
1016 696 -6.923182 2.365015 2.150 
1032 696 -7.186321 2.070186 2.401 
1048 696 -6.983454 1.604112 1.557 
1064 696 -7.110120 1.224667 2.291 
1080 696 -7.599992 0.668445 4.313 
1096 696 -8.552413 0.398659 2.791 
1112 696 -8.725809 0.365505 3.357 
1128 696 -8.552931 0.715388 3.612 
1144 696 -8.106951 0.699172 2.820 
1160 696 -7.863561 0.169004 1.285 
1176 696 -5.317949 -1.113490 1.121 
1192 696 -2.252910 -2.429481 1.113 
1208 696 2.005976 -5.389962 1.039 
1224 696 2.288837 -3.137737 1.192 
1240 696 2.571698 -0.885513 1.032 
1256 696 3.206677 0.440502 2.224 
1272 696 1.982434 0.773193 1.031 
8 680 9.977955 -12.696816 1.106 
24 680 7.542062 -10.726191 1.129 
40 680 0.539579 -3.713343 1.049 
56 680 0.532472 -2.368704 1.222 
72 680 0.525365 -1.024066 1.119 
88 680 0.699123 -1.683087 1.143 
104 680 -2.284131 -1.043551 1.027 
120 680 -5.126159 0.015425 1.901 
136 680 -6.111961 0.893791 2.125 
152 680 -6.183699 1.758996 2.673 
168 680 -6.255841 1.952603 1.600 
184 680 -5.500355 2.028435 2.019 
200 680 -4.589127 2.175215 2.664 
216 680 -4.800793 1.980951 2.387 
232 680 -5.020802 1.649633 2.544 
248 680 -4.681323 1.381190 2.007 
264 680 -4.176307 1.414725 1.094 
280 680 -4.102367 2.017025 1.400 
296 680 -4.806014 1.921145 1.709 
312 680 -4.897787 1.941875 2.334 
328 680 -4.592082 2.439288 1.300 
344 680 -4.946505 2.551933 2.859 
360 680 -4.870535 2.549631 2.281 
376 680 -4.715826 2.378171 2.439 
392 680 -4.647687 2.337830 2.291 
408 680 -5.073814 1.640425 1.291 
424 680 -5.052599 1.721718 1.511 
440 680 -4.898409 1.689189 2.573 
456 680 -4.541791 1.670809 3.614 
472 680 -4.398677 1.487536 4.811 
488 680 -4.742056 0.661183 1.639 
504 680 -4.831281 0.307098 2.276 
520 680 -4.974171 0.008733 2.886 
536 680 -5.011879 -0.198834 1.090 
552 680 -4.988825 -0.281357 1.723 
568 680 -5.042640 -0.299727 2.096 
584 680 -4.758814 -0.461303 1.901 
600 680 -4.933120 -0.728723 1.422 
616 680 -5.101761 -0.804885 2.634 
632 680 -5.269095 -1.282001 2.363 
648 680 -5.459909 -1.711750 2.608 
664 680 -5.880783 -1.780189 1.857 
680 680 -6.032140 -1.717552 2.308 
696 680 -5.524420 -1.401857 2.563 
712 680 -4.995465 -0.878486 2.887 
728 680 -4.756523 -0.836123 3.329 
744 680 -4.577059 -0.756383 4.132 
760 680 -4.362510 -0.503779 2.279 
776 680 -4.233746 0.176284 2.054 
792 680 -4.091056 0.753988 2.616 
808 680 -3.560360 1.042018 2.154 
824 680 -3.105677 1.110533 2.427 
840 680 -2.702434 0.930380 2.142 
856 680 -2.621413 0.500847 1.926 
872 680 -2.937314 0.032908 2.674 
888 680 -3.307147 -0.312943 2.148 
904 680 -3.306243 -0.518212 2.600 
920 680 -3.269383 -0.469464 1.019 
936 680 -3.491847 0.272877 1.359 
952 680 -3.882522 1.355268 1.252 
968 680 -4.284510 2.405422 1.726 
984 680 -4.616306 2.667380 2.383 
1000 680 -5.516859 2.150148 2.092 
1016 680 -6.180847 1.781661 1.928 
1032 680 -6.432856 1.978670 3.186 
1048 680 -6.808028 1.284923 2.676 
1064 680 -7.054788 0.781806 7.388 
1080 680 -7.736190 0.450303 4.402 
1096 680 -8.541303 0.235853 3.013 
1112 680 -8.614141 0.172511 2.398 
1128 680 -8.475951 0.409550 2.110 
1144 680 -8.476557 0.670222 3.375 
1160 680 -8.457844 0.718957 1.018 
1176 680 -7.759269 0.970200 1.405 
1192 680 -5.888076 1.298699 1.129 
1208 680 -1.072928 -2.088002 1.357 
1224 680 0.106281 -1.702066 1.673 
1240 680 1.285490 -1.316130 1.074 
1256 680 2.495456 -0.114799 1.456 
1272 680 2.273142 0.288401 1.473 
8 664 13.355771 -14.456315 1.151 
24 664 11.236936 -12.416085 1.207 
40 664 -0.925539 -0.340776 1.035 
56 664 0.582493 -3.424054 1.013 
72 664 -0.746175 -3.633234 1.285 
88 664 -2.074843 -3.842413 1.091 
104 664 -4.212870 -1.655306 1.333 
120 664 -5.966555 0.709317 2.325 
136 664 -6.056813 1.586967 2.165 
152 664 -5.995980 2.146781 2.161 
168 664 -5.580390 2.100078 1.457 
184 664 -4.487849 2.358256 2.703 
200 664 -4.422441 2.487739 2.878 
216 664 -4.299874 1.990427 1.637 
232 664 -4.950398 1.410724 1.827 
248 664 -4.741824 1.082507 1.356 
264 664 -4.219846 1.105074 1.578 
280 664 -4.150690 1.542071 1.021 
296 664 -4.059715 1.725734 2.097 
312 664 -4.550652 1.808282 2.730 
328 664 -4.314683 1.905585 1.704 
344 664 -5.017996 2.717332 1.073 
360 664 -4.698981 2.659179 1.033 
376 664 -4.275576 2.332572 1.834 
392 664 -3.997405 2.380864 2.383 
408 664 -4.372894 1.976847 1.179 
424 664 -4.642351 2.040579 2.032 
440 664 -5.048815 1.871800 2.366 
456 664 -5.019327 1.309522 3.012 
472 664 -5.418512 1.067351 2.763 
488 664 -5.000127 0.993615 2.753 
504 664 -5.102026 0.591815 3.785 
520 664 -4.888269 0.360740 4.074 
536 664 -4.712091 0.272777 3.876 
552 664 -4.721936 0.215135 4.267 
568 664 -4.813809 -0.123223 2.423 
584 664 -5.389654 -0.608177 2.141 
600 664 -5.495538 -0.818744 1.352 
616 664 -5.312809 -1.059629 2.167 
632 664 -4.808628 -1.217283 1.555 
648 664 -4.774282 -1.258232 1.923 
664 664 -5.391386 -1.314017 1.302 
680 664 -5.556483 -1.078588 1.058 
696 664 -5.340531 -0.304546 12.488 
712 664 -4.894984 0.116482 2.202 
728 664 -4.492140 0.226137 4.072 
744 664 -4.128335 0.316803 4.057 
760 664 -4.052053 0.466460 4.124 
776 664 -4.004998 0.450217 2.662 
792 664 -4.044978 0.803953 1.836 
808 664 -3.968129 1.412213 1.925 
824 664 -3.642371 1.472649 2.440 
840 664 -3.005789 1.195145 1.836 
856 664 -3.078739 0.571223 2.617 
872 664 -3.203029 -0.042362 3.102 
888 664 -3.707066 -0.551951 4.402 
904 664 -3.547942 -0.625885 2.225 
920 664 -3.069715 -0.648215 2.079 
936 664 -3.011625 0.180238 2.729 
952 664 -3.066817 1.295796 1.484 
968 664 -3.138141 2.135448 1.975 
984 664 -4.136721 2.091164 2.489 
1000 664 -4.646396 1.592936 1.963 
1016 664 -5.161573 1.458333 2.446 
1032 664 -5.878214 1.652305 2.416 
1048 664 -6.475905 0.951132 2.346 
1064 664 -7.023949 0.182259 2.804 
1080 664 -7.849734 0.094281 3.052 
1096 664 -8.622460 -0.036986 2.698 
1112 664 -8.629375 -0.113336 1.492 
1128 664 -8.029204 0.162149 1.783 
1144 664 -8.059568 0.576841 2.211 
1160 664 -8.497471 0.738707 2.289 
1176 664 -8.331781 0.967476 2.095 
1192 664 -6.852209 0.888561 1.278 
1208 664 -4.162826 1.091391 1.030 
1224 664 -2.099456 -0.420697 1.118 
1240 664 -0.181351 -0.970522 1.358 
1256 664 1.653950 -0.724921 1.268 
1272 664 2.394963 -0.377869 1.201 
8 648 18.395808 -15.771731 1.121 
24 648 6.034325 -4.790117 1.092 
40 648 2.900261 -5.288358 1.083 
56 648 -0.233803 -5.786599 1.123 
72 648 -2.176407 -5.749089 1.206 
88 648 -4.119012 -5.711580 1.089 
104 648 -4.888707 -2.409520 1.052 
120 648 -5.066685 0.488722 1.126 
136 648 -5.674744 1.659413 1.629 
152 648 -6.276670 1.942176 2.116 
168 648 -5.808876 2.159763 2.222 
184 648 -4.088076 2.257557 1.203 
200 648 -4.255755 2.800262 2.302 
216 648 -4.339103 1.940211 1.010 
232 648 -4.715411 0.950472 2.303 
248 648 -4.903553 0.795737 2.449 
264 648 -4.706728 1.005806 2.339 
280 648 -4.572074 1.416424 1.322 
296 648 -4.467926 1.515399 2.441 
312 648 -4.539078 1.677663 1.853 
328 648 -4.361594 2.030640 2.046 
344 648 -4.563437 2.576911 1.002 
360 648 -4.277463 2.558391 1.391 
376 648 -3.828857 2.088285 1.184 
392 648 -3.999147 2.060532 1.815 
408 648 -3.740706 1.996935 1.361 
424 648 -4.655276 1.894227 1.336 
440 648 -5.019509 1.468871 2.512 
456 648 -5.474493 0.767143 2.876 
472 648 -5.533318 0.970161 2.371 
488 648 -5.554440 0.897583 3.069 
504 648 -5.356476 1.011429 3.075 
520 648 -4.858324 0.788294 1.666 
536 648 -4.636088 0.484584 1.840 
552 648 -4.683127 0.279740 2.023 
568 648 -5.103443 -0.153952 2.799 
584 648 -5.736069 -0.655945 1.839 
600 648 -5.494116 -0.821272 1.163 
616 648 -5.381384 -0.820943 2.530 
632 648 -4.784712 -0.942591 1.725 
648 648 -4.498205 -0.848751 2.130 
664 648 -4.910834 -0.659490 1.082 
680 648 -5.059237 -0.291022 1.037 
696 648 -4.789667 0.516296 5.362 
712 648 -4.501675 1.127912 2.662 
728 648 -4.248370 1.351987 3.686 
744 648 -3.965669 0.886134 5.873 
760 648 -3.834964 0.690532 6.990 
776 648 -3.704332 0.385508 1.915 
792 648 -3.920839 0.985831 2.049 
808 648 -3.741486 1.415437 2.316 
824 648 -3.746334 1.673561 2.860 
840 648 -3.334356 1.473715 2.356 
856 648 -3.324036 0.663327 1.879 
872 648 -3.760678 -0.203688 2.168 
888 648 -3.942244 -0.343929 2.063 
904 648 -3.789642 -0.733558 1.581 
920 648 -3.086355 -0.555937 3.092 
936 648 -3.030782 0.339142 2.773 
952 648 -3.254021 1.455441 1.944 
968 648 -3.208063 1.947920 1.064 
984 648 -3.554336 1.832617 2.109 
1000 648 -4.232527 1.229661 2.811 
1016 648 -4.767200 1.035027 7.110 
1032 648 -5.766891 1.258550 3.340 
1048 648 -6.527973 0.810181 2.163 
1064 648 -7.138710 0.256701 3.729 
1080 648 -7.589835 0.335653 3.626 
1096 648 -8.312601 0.430459 2.804 
1112 648 -8.264272 0.287450 2.303 
1128 648 -7.964117 0.384006 3.902 
1144 648 -7.922058 0.479113 3.080 
1160 648 -7.954776 0.377991 3.043 
1176 648 -8.433203 0.579908 1.537 
1192 648 -7.816342 0.478423 3.161 
1208 648 -5.823447 0.460362 1.331 
1224 648 -3.534524 -0.282925 1.011 
1240 648 -1.648192 -0.624914 1.632 
1256 648 0.471775 -0.932299 1.639 
1272 648 2.419094 -0.714638 1.661 
8 632 2.308367 2.793781 1.048 
24 632 0.990906 3.960604 1.049 
40 632 -0.328846 0.816753 1.029 
56 632 -0.450081 -3.920063 1.120 
72 632 -2.279903 -3.988626 1.156 
88 632 -4.109724 -4.057189 1.012 
104 632 -4.706839 -1.462695 1.024 
120 632 -4.539863 0.868414 1.235 
136 632 -5.292676 1.731858 2.156 
152 632 -6.040085 2.158784 2.458 
168 632 -5.469996 2.353131 2.886 
184 632 -4.710446 2.384026 1.278 
200 632 -4.618479 2.606387 1.388 
216 632 -4.844078 2.043738 2.023 
232 632 -4.918970 0.959530 3.187 
248 632 -5.525505 0.964650 1.905 
264 632 -5.469365 1.418853 1.882 
280 632 -5.345036 1.936285 1.261 
296 632 -5.480434 1.809215 1.460 
312 632 -5.199528 1.795801 2.131 
328 632 -4.764496 2.026690 2.533 
344 632 -4.324121 2.460894 1.806 
360 632 -4.164928 2.513656 2.517 
376 632 -4.115771 2.162763 1.897 
392 632 -4.000888 1.740199 1.973 
408 632 -4.283294 1.564287 2.466 
424 632 -4.743488 1.412493 1.839 
440 632 -5.014433 1.210264 1.586 
456 632 -5.475350 0.984777 3.184 
472 632 -5.648124 0.872972 1.675 
488 632 -5.770337 1.299520 3.002 
504 632 -5.539086 1.237244 3.064 
520 632 -4.950680 0.735255 1.601 
536 632 -4.644103 0.364183 2.348 
552 632 -4.753818 0.116001 1.645 
568 632 -5.349710 -0.311512 1.891 
584 632 -5.634409 -0.657271 1.168 
600 632 -5.569334 -0.991587 1.748 
616 632 -5.421823 -0.890965 1.356 
632 632 -5.035363 -0.583183 2.462 
648 632 -4.628810 -0.504206 1.771 
664 632 -4.568617 -0.198365 1.753 
680 632 -4.598176 0.214037 1.962 
696 632 -4.454431 1.018640 3.636 
712 632 -4.246800 1.403704 5.455 
728 632 -3.867312 1.090234 2.138 
744 632 -3.844049 0.654710 2.839 
760 632 -3.820012 0.230258 2.342 
776 632 -3.675647 0.409591 2.468 
792 632 -4.120396 1.046822 4.185 
808 632 -4.177259 1.738633 2.214 
824 632 -3.867671 1.756478 2.431 
840 632 -3.447275 1.002008 2.923 
856 632 -3.555457 0.686969 1.922 
872 632 -3.997232 0.033184 2.818 
888 632 -4.177421 -0.135907 1.970 
904 632 -3.806904 -0.238992 1.813 
920 632 -3.387588 0.051229 3.212 
936 632 -3.469565 0.869366 1.579 
952 632 -3.441224 1.615087 2.741 
968 632 -3.277985 1.760391 2.312 
984 632 -3.575026 1.433201 2.065 
1000 632 -4.228788 0.880150 2.235 
1016 632 -4.726607 0.586564 1.988 
1032 632 -5.806316 0.827414 2.563 
1048 632 -6.269439 1.448756 2.669 
1064 632 -6.529802 1.911325 2.678 
1080 632 -6.809946 1.514777 2.045 
1096 632 -7.213373 1.163533 4.070 
1112 632 -7.993692 0.789594 2.370 