TITLE = "B00227"
VARIABLES = "x", "y", "u", "v", "sn"
ZONE T="Frame 0", I=80, J=50
8 792 0.000000 -0.000000 1.219 
24 792 -9.422375 -13.923331 1.241 
40 792 -7.789447 -15.333844 1.097 
56 792 -7.111835 -18.494471 1.105 
72 792 -6.434222 -21.655097 1.202 
88 792 -8.632432 -40.573507 1.302 
104 792 -10.722485 -38.965924 1.105 
120 792 -12.812537 -37.358340 1.287 
136 792 -11.165745 -22.750415 1.021 
152 792 -8.718924 -7.522698 1.359 
168 792 -6.547179 -0.094829 1.229 
184 792 -6.666306 0.060050 1.568 
200 792 -6.785433 0.214929 1.857 
216 792 -6.904559 0.369808 3.814 
232 792 -6.945199 -0.285427 2.852 
248 792 -7.220433 -0.503532 2.336 
264 792 -7.257493 -0.204520 1.594 
280 792 -7.126003 -0.392060 6.872 
296 792 -6.947033 -0.602422 1.839 
312 792 -6.952376 -0.394214 1.936 
328 792 -6.957720 -0.186006 1.836 
344 792 -7.075747 -0.171895 1.195 
360 792 -7.162019 -0.309648 4.047 
376 792 -7.087411 -0.595449 2.589 
392 792 -7.057302 -0.744067 1.893 
408 792 -6.625940 -0.774670 1.526 
424 792 -6.513771 -0.479313 2.476 
440 792 -6.713587 -0.514240 2.769 
456 792 -7.126581 -0.914647 5.501 
472 792 -7.177130 -0.931024 5.709 
488 792 -6.866290 -0.949108 2.517 
504 792 -7.034865 -1.235957 1.969 
520 792 -7.162534 -1.185987 1.717 
536 792 -6.833717 -1.160392 2.566 
552 792 -6.824013 -1.111534 1.514 
568 792 -6.796851 -1.271388 2.030 
584 792 -6.963643 -1.673239 2.389 
600 792 -6.586834 -1.636379 2.492 
616 792 -6.081180 -1.233463 2.085 
632 792 -6.253586 -1.262988 2.114 
648 792 -6.615681 -1.681136 2.300 
664 792 -6.708859 -1.877862 2.951 
680 792 -6.696075 -1.762378 3.543 
696 792 -6.746958 -1.583880 3.516 
712 792 -6.556433 -1.855294 2.482 
728 792 -6.434119 -1.901782 2.098 
744 792 -6.311805 -1.948271 1.799 
760 792 -6.189491 -1.994759 3.052 
776 792 -5.765275 -2.118021 2.629 
792 792 -5.439727 -1.954814 2.368 
808 792 -5.287267 -1.767178 1.807 
824 792 -5.414732 -1.716543 5.048 
840 792 -5.417246 -1.477406 10.572 
856 792 -5.106030 -1.439068 3.474 
872 792 -4.520623 -1.790236 2.479 
888 792 -4.312396 -2.482734 4.132 
904 792 -4.856489 -2.743431 3.754 
920 792 -4.893402 -2.491859 1.876 
936 792 -4.930316 -2.240288 1.257 
952 792 -4.967230 -1.988716 1.044 
968 792 -5.004143 -1.737144 1.048 
984 792 -5.041057 -1.485572 1.913 
1000 792 -5.077971 -1.234000 1.352 
1016 792 -4.104055 -1.088497 1.312 
1032 792 -3.817817 -1.128513 1.802 
1048 792 -3.882073 -1.768220 3.442 
1064 792 -4.125386 -2.310878 5.461 
1080 792 -4.388731 -2.731849 4.809 
1096 792 -3.792219 -2.636027 2.574 
1112 792 -3.195706 -2.540206 1.849 
1128 792 -2.599194 -2.444385 1.128 
1144 792 -0.812069 4.433055 1.402 
1160 792 1.485101 0.154874 1.074 
1176 792 5.188205 -10.959595 1.228 
1192 792 4.732783 -14.012981 1.026 
1208 792 4.277360 -17.066366 1.030 
1224 792 0.975379 -11.835075 1.612 
1240 792 1.317347 -2.669330 1.327 
1256 792 1.396938 -1.167320 1.357 
1272 792 1.476529 0.334690 1.393 
8 776 -4.218385 -8.619760 1.193 
24 776 -8.021059 -13.483364 1.236 
40 776 -5.148527 -12.426387 1.068 
56 776 -5.654410 -7.581904 1.086 
72 776 -6.888644 -22.242434 1.208 
88 776 -8.122879 -36.902964 1.203 
104 776 -11.811198 -37.724455 1.181 
120 776 -12.993933 -34.221409 1.290 
136 776 -11.386792 -21.334597 1.004 
152 776 -8.684012 -6.880914 1.373 
168 776 -7.055993 -1.584071 1.258 
184 776 -6.921073 0.363647 1.597 
200 776 -6.934943 0.244148 1.899 
216 776 -6.948812 0.124649 3.786 
232 776 -6.940882 -0.328209 2.727 
248 776 -7.177781 -0.480771 2.175 
264 776 -7.209675 -0.218536 1.651 
280 776 -7.111190 -0.441254 6.580 
296 776 -6.957767 -0.602777 1.821 
312 776 -6.701853 -0.387244 1.947 
328 776 -6.964271 -0.305575 1.820 
344 776 -7.042704 -0.341317 1.168 
360 776 -7.114230 -0.458010 3.515 
376 776 -6.992664 -0.659011 2.531 
392 776 -6.998330 -0.791131 1.910 
408 776 -6.678785 -0.781628 1.535 
424 776 -6.582302 -0.502012 2.549 
440 776 -6.692928 -0.506987 2.910 
456 776 -7.042361 -0.843103 5.630 
472 776 -7.080843 -0.813735 5.560 
488 776 -6.767737 -0.855994 2.622 
504 776 -6.943170 -1.069755 1.995 
520 776 -7.071782 -1.017498 1.767 
536 776 -6.785191 -0.996749 2.827 
552 776 -6.784432 -1.012679 1.589 
568 776 -6.740560 -1.159855 2.107 
584 776 -6.882314 -1.542809 2.363 
600 776 -6.552903 -1.547083 2.484 
616 776 -6.115761 -1.220373 2.113 
632 776 -6.280924 -1.232792 2.151 
648 776 -6.598527 -1.569811 2.215 
664 776 -6.727204 -1.843288 2.943 
680 776 -6.736412 -1.793462 3.700 
696 776 -6.778092 -1.580551 3.534 
712 776 -6.632173 -1.767601 2.647 
728 776 -6.663031 -1.792579 2.059 
744 776 -6.693890 -1.817558 2.015 
760 776 -6.304662 -2.060438 3.216 
776 776 -5.893178 -2.130622 2.661 
792 776 -5.538212 -2.093864 2.529 
808 776 -5.341299 -1.795925 1.894 
824 776 -5.450435 -1.644506 4.754 
840 776 -5.437423 -1.330430 11.080 
856 776 -5.138054 -1.292922 3.605 
872 776 -4.605235 -1.654614 2.427 
888 776 -4.392763 -2.355298 3.827 
904 776 -4.873434 -2.636913 3.865 
920 776 -4.913246 -3.064736 1.848 
936 776 -5.703964 -2.594316 1.187 
952 776 -5.700157 -2.255919 1.102 
968 776 -5.696349 -1.917521 1.146 
984 776 -5.692541 -1.579124 1.931 
1000 776 -4.425906 -1.849534 1.359 
1016 776 -4.107460 -1.223869 1.322 
1032 776 -3.814052 -1.260152 1.788 
1048 776 -3.809818 -1.866162 3.509 
1064 776 -4.020346 -2.340437 5.873 
1080 776 -4.214552 -2.739360 4.497 
1096 776 -4.641313 -2.499673 2.655 
1112 776 -4.104832 -2.707576 1.843 
1128 776 -1.829053 -2.230550 1.121 
1144 776 -0.467709 4.422045 1.426 
1160 776 3.940464 1.482331 1.037 
1176 776 4.811394 -7.387734 1.316 
1192 776 5.682324 -16.257799 1.145 
1208 776 2.496012 -13.913550 1.096 
1224 776 1.086556 -6.263205 1.476 
1240 776 0.787725 -1.285999 1.309 
1256 776 1.560102 -0.337474 1.325 
1272 776 1.523251 0.367135 1.365 
8 760 -4.956876 -4.091631 1.251 
24 760 -5.573114 -8.151967 1.342 
40 760 -2.507608 -9.518929 1.211 
56 760 -2.647516 -6.429692 1.352 
72 760 -4.826211 -6.236103 1.198 
88 760 -7.004905 -6.042514 1.170 
104 760 -13.207255 -9.315692 1.065 
120 760 -13.166920 -19.800070 1.039 
136 760 -9.407898 -12.934389 1.056 
152 760 -8.200481 -4.980946 1.154 
168 760 -7.195335 -1.818387 1.663 
184 760 -6.992354 0.454338 2.031 
200 760 -7.341655 -0.114721 1.862 
216 760 -6.902119 -0.126275 1.191 
232 760 -7.000828 -0.228477 1.564 
248 760 -7.053344 -0.240187 2.052 
264 760 -6.992541 -0.151263 3.785 
280 760 -7.007439 -0.405160 2.144 
296 760 -6.884726 -0.488572 2.036 
312 760 -7.086109 -0.541604 2.469 
328 760 -7.021935 -0.461529 1.793 
344 760 -6.978013 -0.468563 1.722 
360 760 -6.908200 -0.543241 2.525 
376 760 -6.838174 -0.712406 3.018 
392 760 -6.879402 -0.792948 4.299 
408 760 -6.984342 -0.661560 2.102 
424 760 -6.751929 -0.525289 2.959 
440 760 -6.736011 -0.547611 3.877 
456 760 -6.882467 -0.738713 3.615 
472 760 -6.864481 -0.568839 2.871 
488 760 -6.668917 -0.589231 2.776 
504 760 -6.590713 -0.970365 3.247 
520 760 -6.922944 -0.775011 3.105 
536 760 -7.050975 -0.680403 2.549 
552 760 -6.820595 -0.867619 3.151 
568 760 -6.601137 -0.977008 3.011 
584 760 -6.642971 -1.317135 1.980 
600 760 -6.440362 -1.551491 3.777 
616 760 -6.111850 -1.299816 3.092 
632 760 -6.374224 -1.194751 1.957 
648 760 -6.682856 -1.445380 2.591 
664 760 -6.702152 -1.772960 3.056 
680 760 -6.704520 -1.755380 3.344 
696 760 -6.876657 -1.481743 3.813 
712 760 -6.595823 -1.521276 3.169 
728 760 -6.372013 -1.804817 2.863 
744 760 -6.591799 -1.956534 2.031 
760 760 -6.458815 -2.181061 3.076 
776 760 -6.058438 -2.083692 3.878 
792 760 -5.468143 -2.023543 3.076 
808 760 -5.483312 -1.736203 3.123 
824 760 -5.488016 -1.482426 3.948 
840 760 -5.540052 -0.947609 16.906 
856 760 -5.129095 -0.943307 4.417 
872 760 -4.664658 -1.411137 2.751 
888 760 -4.466801 -2.024660 2.823 
904 760 -4.974811 -2.382965 2.061 
920 760 -4.852304 -2.822254 1.416 
936 760 -4.985748 -3.263084 2.458 
952 760 -6.300814 -2.351058 1.081 
968 760 -6.108144 -2.196217 1.989 
984 760 -4.741110 -2.456441 2.321 
1000 760 -3.913763 -2.360758 1.705 
1016 760 -4.010975 -1.477600 1.720 
1032 760 -3.711976 -1.539275 1.919 
1048 760 -3.540720 -2.082789 2.536 
1064 760 -3.663489 -2.541947 2.372 
1080 760 -4.142588 -2.576228 3.546 
1096 760 -4.528226 -2.577672 1.123 
1112 760 -3.738890 -2.693446 1.012 
1128 760 -2.570783 -2.088298 1.177 
1144 760 0.506380 4.283171 1.034 
1160 760 2.632229 0.947717 1.104 
1176 760 2.567771 1.034236 1.068 
1192 760 1.360995 -0.335742 1.252 
1208 760 0.714781 0.165453 1.367 
1224 760 1.393802 0.004620 1.189 
1240 760 0.558110 -0.067537 1.239 
1256 760 -1.129589 2.114974 1.136 
1272 760 -5.588128 3.906134 1.287 
8 744 -5.718060 -0.051687 1.133 
24 744 -3.716610 -1.898797 1.047 
40 744 0.185554 -3.499611 1.582 
56 744 0.222367 -5.142214 1.311 
72 744 -3.073776 -5.312892 1.075 
88 744 -6.369919 -5.483569 1.081 
104 744 -11.608765 -5.910129 1.107 
120 744 -13.339907 -5.378732 1.099 
136 744 -7.429004 -4.534181 1.051 
152 744 -7.194048 -3.257565 1.245 
168 744 -6.855372 -1.163837 2.717 
184 744 -6.811125 0.294401 2.855 
200 744 -7.292695 -0.132378 1.366 
216 744 -7.222406 -0.086880 1.776 
232 744 -7.072313 0.021389 4.282 
248 744 -6.964303 0.039599 2.144 
264 744 -6.801508 -0.111911 2.597 
280 744 -6.829614 -0.405612 3.360 
296 744 -6.811684 -0.374368 3.165 
312 744 -6.977452 -0.150899 2.069 
328 744 -6.772816 -0.454959 1.649 
344 744 -6.877894 -0.559852 3.404 
360 744 -6.825945 -0.456623 2.449 
376 744 -6.601275 -0.532080 2.858 
392 744 -6.611354 -0.599908 1.414 
408 744 -7.129190 -0.639994 2.520 
424 744 -7.093427 -0.669974 1.718 
440 744 -6.975770 -0.770186 2.922 
456 744 -6.924179 -0.846762 2.624 
472 744 -6.813213 -0.658545 3.231 
488 744 -6.664246 -0.627243 3.317 
504 744 -6.687723 -0.868528 2.718 
520 744 -6.975610 -0.552255 2.585 
536 744 -6.831853 -0.564832 2.652 
552 744 -6.697205 -0.652069 2.459 
568 744 -6.542532 -0.982743 2.449 
584 744 -6.586608 -1.104725 1.910 
600 744 -6.403069 -1.386502 1.086 
616 744 -6.193002 -1.273752 1.681 
632 744 -6.327409 -1.178451 1.231 
648 744 -6.316875 -1.204001 3.882 
664 744 -6.402884 -1.370839 3.334 
680 744 -6.520934 -1.546772 2.718 
696 744 -6.414821 -1.207981 1.756 
712 744 -6.390103 -1.225247 1.124 
728 744 -6.445097 -1.527624 1.070 
744 744 -6.474796 -2.033072 2.979 
760 744 -6.280728 -2.186363 3.612 
776 744 -5.960884 -2.069234 2.888 
792 744 -5.674238 -1.831393 3.162 
808 744 -5.575725 -1.737948 2.597 
824 744 -5.457961 -1.291895 1.900 
840 744 -5.255699 -0.892954 4.094 
856 744 -4.865710 -0.951636 3.400 
872 744 -4.637850 -1.382015 2.751 
888 744 -4.606495 -1.794363 2.164 
904 744 -4.822316 -2.158208 1.906 
920 744 -4.791362 -2.579773 1.932 
936 744 -4.826648 -3.004465 1.924 
952 744 -5.537868 -2.321008 2.409 
968 744 -5.313343 -2.143938 2.900 
984 744 -4.535779 -2.453256 3.280 
1000 744 -3.942450 -2.033387 3.290 
1016 744 -4.051007 -1.517915 2.200 
1032 744 -3.793096 -1.490660 1.783 
1048 744 -3.600524 -1.740794 2.007 
1064 744 -3.779831 -1.939810 2.013 
1080 744 -4.070624 -2.413095 2.325 
1096 744 -4.395654 -2.656356 1.103 
1112 744 -3.840528 -2.914970 1.058 
1128 744 -2.390849 -2.439950 1.287 
1144 744 0.366707 1.414171 1.039 
1160 744 1.323994 0.413103 1.023 
1176 744 1.378674 0.376321 1.020 
1192 744 1.195079 0.586140 1.125 
1208 744 3.052526 0.760968 1.743 
1224 744 2.974007 2.326351 1.104 
1240 744 1.936076 2.879952 1.008 
1256 744 -2.623599 5.098997 1.148 
1272 744 -6.710718 4.119157 1.153 
8 728 -6.479245 3.988257 1.203 
24 728 -4.862291 2.505514 1.281 
40 728 -0.501072 1.353840 1.672 
56 728 0.213316 -1.476817 1.436 
72 728 -0.465300 -4.579720 1.348 
88 728 -4.368827 -5.272560 1.011 
104 728 -7.986407 -4.316224 1.034 
120 728 -9.561549 -3.498224 1.047 
136 728 -6.960911 -3.102816 1.006 
152 728 -7.718198 -1.910689 1.313 
168 728 -6.926235 -0.587202 2.258 
184 728 -6.797206 0.378501 2.751 
200 728 -7.095946 0.333037 2.168 
216 728 -7.192070 0.232292 2.563 
232 728 -7.227315 0.240143 3.835 
248 728 -7.035309 0.198727 3.731 
264 728 -6.966019 -0.079069 2.806 
280 728 -6.847964 -0.458676 2.056 
296 728 -6.777744 -0.369177 2.476 
312 728 -6.766344 -0.159750 2.125 
328 728 -6.562706 -0.440459 1.667 
344 728 -6.777774 -0.651141 2.041 
360 728 -6.976258 -0.473494 2.631 
376 728 -6.618233 -0.465403 2.713 
392 728 -6.628533 -0.509127 1.849 
408 728 -7.000116 -0.626712 1.718 
424 728 -7.088135 -0.667556 1.846 
440 728 -6.975295 -0.716252 2.856 
456 728 -6.980354 -0.923234 2.377 
472 728 -6.787227 -1.037985 1.675 
488 728 -6.581475 -0.863508 3.725 
504 728 -6.769782 -0.869127 5.177 
520 728 -6.733926 -0.725928 3.126 
536 728 -6.638784 -0.607294 2.397 
552 728 -6.547026 -0.981905 4.413 
568 728 -6.656682 -1.185725 2.658 
584 728 -6.605958 -1.003718 2.276 
600 728 -6.472641 -1.226462 1.908 
616 728 -6.274154 -1.247688 2.679 
632 728 -6.266138 -1.152146 2.614 
648 728 -6.204027 -1.052621 4.799 
664 728 -6.154410 -1.158218 3.402 
680 728 -6.295918 -1.360954 2.885 
696 728 -6.267847 -1.026256 2.388 
712 728 -6.530292 -1.148923 1.081 
728 728 -6.503479 -1.382849 1.077 
744 728 -6.428323 -1.652482 2.897 
760 728 -6.142268 -1.867019 1.621 
776 728 -5.974559 -1.853058 1.782 
792 728 -5.728884 -1.731479 2.570 
808 728 -5.777572 -1.727130 2.787 
824 728 -5.392242 -1.679805 1.521 
840 728 -4.812201 -1.382295 1.695 
856 728 -4.393795 -1.499242 1.918 
872 728 -4.445760 -1.582265 1.625 
888 728 -4.605895 -1.735914 1.953 
904 728 -4.656211 -1.691379 2.550 
920 728 -4.666816 -1.818927 1.615 
936 728 -4.770401 -2.183715 1.524 
952 728 -4.774922 -2.290957 1.947 
968 728 -4.518543 -2.091659 2.148 
984 728 -4.388501 -1.892164 2.360 
1000 728 -4.066074 -1.790459 1.830 
1016 728 -4.124668 -0.813207 1.904 
1032 728 -4.070334 -0.838965 4.117 
1048 728 -3.746130 -1.194835 2.330 
1064 728 -3.755699 -1.473368 1.718 
1080 728 -4.087456 -1.911667 1.709 
1096 728 -4.233290 -2.545053 2.359 
1112 728 -4.167442 -3.117949 2.292 
1128 728 -2.986499 -3.317435 1.705 
1144 728 -1.689113 -1.828816 1.127 
1160 728 0.015759 -0.121511 1.053 
1176 728 0.189576 -0.281594 1.074 
1192 728 0.182161 -0.317591 1.360 
1208 728 2.054454 0.745378 1.901 
1224 728 2.760431 1.826967 1.039 
1240 728 3.314042 5.827441 1.252 
1256 728 0.489609 6.895629 1.021 
1272 728 -4.806955 6.313975 1.029 
8 712 -6.852139 6.943340 1.408 
24 712 -5.901551 7.463078 1.274 
40 712 -2.845490 7.615171 1.564 
56 712 0.245287 4.945255 1.252 
72 712 -0.452291 -1.048999 1.557 
88 712 -2.961051 -3.678939 1.036 
104 712 -5.377235 -4.036044 1.112 
120 712 -6.485878 -3.948328 1.355 
136 712 -6.492817 -1.671452 2.172 
152 712 -6.817440 -0.688887 3.286 
168 712 -6.997098 -0.010566 3.903 
184 712 -6.767669 0.528996 1.948 
200 712 -6.835438 0.481150 1.602 
216 712 -7.168086 0.155793 3.101 
232 712 -7.028673 0.048176 2.457 
248 712 -6.844544 0.035556 2.240 
264 712 -7.057797 -0.165660 1.848 
280 712 -6.806441 -0.430004 1.810 
296 712 -6.809833 -0.354339 1.652 
312 712 -6.645961 -0.214937 2.527 
328 712 -6.576736 -0.432835 1.248 
344 712 -6.982176 -0.735714 1.855 
360 712 -7.095351 -0.527339 2.373 
376 712 -6.624378 -0.514427 1.738 
392 712 -6.603100 -0.325424 1.590 
408 712 -6.569686 -0.260896 1.267 
424 712 -6.710629 -0.354079 1.404 
440 712 -6.890857 -0.717975 2.384 
456 712 -6.749524 -0.847970 5.745 
472 712 -6.515815 -0.821096 4.452 
488 712 -6.294292 -0.781631 3.589 
504 712 -6.827714 -0.962292 2.812 
520 712 -6.781719 -0.913288 2.045 
536 712 -6.513977 -0.872972 2.907 
552 712 -6.616027 -1.187001 3.400 
568 712 -6.656677 -1.200087 1.912 
584 712 -6.627252 -1.067287 1.389 
600 712 -6.517712 -1.095150 2.115 
616 712 -6.372886 -1.097670 3.007 
632 712 -6.280347 -1.116569 4.513 
648 712 -6.292043 -1.156868 3.679 
664 712 -6.132062 -1.369530 1.228 
680 712 -6.148617 -1.291424 4.369 
696 712 -6.222811 -1.140785 2.744 
712 712 -6.323588 -1.167444 2.227 
728 712 -6.516498 -1.320392 2.028 
744 712 -6.580081 -1.481607 2.692 
760 712 -6.291990 -1.596162 2.409 
776 712 -5.987786 -1.620868 2.864 
792 712 -5.755801 -1.630459 2.982 
808 712 -5.456083 -1.696134 3.992 
824 712 -5.168560 -1.673661 4.630 
840 712 -4.795002 -1.605589 2.802 
856 712 -4.411801 -1.627441 1.064 
872 712 -4.201757 -1.739644 1.493 
888 712 -4.723370 -1.609214 1.683 
904 712 -4.691316 -1.644915 2.573 
920 712 -4.406136 -1.641588 2.615 
936 712 -4.458226 -1.705215 3.198 
952 712 -4.457177 -1.773696 3.454 
968 712 -4.381238 -1.890170 2.218 
984 712 -4.256719 -1.929398 2.709 
1000 712 -3.922401 -1.836463 2.291 
1016 712 -3.721445 -1.017801 1.502 
1032 712 -3.853210 -0.956456 1.846 
1048 712 -3.632324 -1.209426 1.730 
1064 712 -3.529897 -1.312898 2.703 
1080 712 -3.504525 -1.731966 2.027 
1096 712 -3.555168 -2.306298 1.980 
1112 712 -4.074001 -2.848489 3.187 
1128 712 -3.791504 -3.167066 1.893 
1144 712 -3.075369 -2.498882 1.519 
1160 712 -2.420913 -1.236558 1.702 
1176 712 -2.266145 -0.869580 1.798 
1192 712 -1.042936 -1.150364 2.647 
1208 712 1.056381 0.729789 1.376 
1224 712 2.546855 1.327584 1.523 
1240 712 1.761601 4.157979 1.009 
1256 712 -0.043242 6.107271 1.091 
1272 712 -4.983737 5.403596 1.136 
8 696 -3.942581 10.531283 1.009 
24 696 -3.062757 11.955360 1.032 
40 696 -1.951695 13.791702 1.350 
56 696 -0.888671 12.691561 1.348 
72 696 -2.654486 7.054289 1.149 
88 696 -6.923046 -1.307731 1.039 
104 696 -6.653655 -1.762371 1.106 
120 696 -6.384264 -2.217011 1.461 
136 696 -6.552035 -0.251180 2.616 
152 696 -6.857544 -0.047108 6.347 
168 696 -7.070795 0.354638 3.491 
184 696 -7.170954 0.390533 1.399 
200 696 -7.110048 0.374957 1.854 
216 696 -7.118134 0.041389 1.911 
232 696 -6.797471 0.046276 3.087 
248 696 -6.626183 0.028977 4.065 
264 696 -6.674621 -0.190216 1.759 
280 696 -6.871563 -0.385809 1.702 
296 696 -6.801539 -0.191511 3.186 
312 696 -6.419666 -0.077519 2.438 
328 696 -6.488178 -0.430214 1.552 
344 696 -6.794999 -0.694304 1.730 
360 696 -6.635763 -0.687353 1.992 
376 696 -6.630524 -0.563452 2.450 
392 696 -6.320592 -0.298150 2.403 
408 696 -6.114004 -0.308037 2.308 
424 696 -6.555541 -0.552079 1.961 
440 696 -6.536832 -0.628397 2.812 
456 696 -6.496245 -0.761681 5.056 
472 696 -6.311243 -0.777592 2.366 
488 696 -6.205076 -0.767169 2.128 
504 696 -6.695369 -0.864828 2.180 
520 696 -6.648659 -0.952131 2.081 
536 696 -6.289668 -0.978024 3.595 
552 696 -6.446653 -1.293775 3.485 
568 696 -6.521142 -1.255974 2.097 
584 696 -6.421026 -1.062909 2.440 
600 696 -6.655512 -1.093276 2.327 
616 696 -6.558474 -1.158961 2.407 
632 696 -6.276650 -1.201405 3.018 
648 696 -6.259012 -1.319221 2.352 
664 696 -6.154058 -1.417253 2.143 
680 696 -6.020575 -1.225112 3.070 
696 696 -6.194245 -1.094978 2.836 
712 696 -6.396361 -1.144428 3.372 
728 696 -6.437076 -1.376106 2.832 
744 696 -6.619111 -1.437966 2.693 
760 696 -6.698442 -1.429184 2.048 
776 696 -6.139712 -1.403394 3.086 
792 696 -5.463389 -1.627848 2.256 
808 696 -5.201816 -1.783263 3.334 
824 696 -5.038506 -1.713336 5.525 
840 696 -4.761704 -1.635523 5.472 
856 696 -4.530479 -1.612990 2.376 
872 696 -4.477578 -1.660783 1.814 
888 696 -4.521505 -1.720586 2.463 
904 696 -4.326627 -1.718151 3.591 
920 696 -4.062453 -1.674873 4.162 
936 696 -4.076425 -1.673110 2.919 
952 696 -4.182693 -1.689031 2.904 
968 696 -4.164644 -1.705973 1.791 
984 696 -4.067531 -1.763495 2.060 
1000 696 -4.045072 -1.564929 2.429 
1016 696 -3.695209 -1.261582 3.261 
1032 696 -3.461123 -1.490874 1.948 
1048 696 -3.653910 -1.325894 4.816 
1064 696 -3.644992 -1.075795 2.761 
1080 696 -3.543251 -1.387280 1.678 
1096 696 -3.232000 -1.874610 1.813 
1112 696 -3.411707 -2.066510 2.644 
1128 696 -3.923566 -2.162685 3.772 
1144 696 -3.685235 -1.783267 1.030 
1160 696 -3.520101 -1.120584 1.035 
1176 696 -3.353217 -0.870260 1.846 
1192 696 -2.002194 -1.387505 2.101 
1208 696 0.541491 0.368856 1.581 
1224 696 1.723665 2.264400 1.031 
1240 696 0.573786 3.791657 1.183 
1256 696 -0.576093 5.318913 1.160 
1272 696 -5.160518 4.493218 1.022 
8 680 1.094332 10.271577 1.291 
24 680 1.156484 12.106395 1.369 
40 680 -2.154820 10.908237 1.305 
56 680 -3.567721 11.011487 1.272 
72 680 -6.249580 7.297082 1.191 
88 680 -6.376407 1.945062 1.012 
104 680 -6.553743 -0.723185 1.018 
120 680 -6.781590 -0.707660 1.528 
136 680 -6.818993 0.500309 3.084 
152 680 -6.932128 0.609581 3.591 
168 680 -6.865866 0.591302 2.726 
184 680 -6.892192 0.471652 1.736 
200 680 -6.875452 0.222679 1.045 
216 680 -7.020626 -0.141214 1.040 
232 680 -6.723893 0.032581 8.981 
248 680 -6.554058 0.042548 2.997 
264 680 -6.646349 -0.075841 1.873 
280 680 -6.734104 -0.019534 1.526 
296 680 -6.825727 0.117355 2.925 
312 680 -6.831525 0.213917 1.658 
328 680 -6.572322 -0.248461 1.699 
344 680 -6.447121 -0.418146 5.129 
360 680 -6.389413 -0.598703 1.656 
376 680 -6.471576 -0.729588 3.541 
392 680 -6.549514 -0.701492 1.216 
408 680 -5.971899 -0.704206 2.274 
424 680 -6.400454 -0.750078 2.345 
440 680 -6.382881 -0.773798 2.471 
456 680 -6.321276 -0.843992 1.914 
472 680 -6.042789 -0.898631 3.011 
488 680 -6.196276 -0.773223 3.905 
504 680 -6.408955 -0.819304 2.150 
520 680 -6.294623 -0.995628 2.697 
536 680 -5.987174 -1.144168 2.168 
552 680 -6.015841 -1.494037 3.190 
568 680 -6.229061 -1.399515 1.201 
584 680 -6.271961 -1.182660 13.627 
600 680 -6.340246 -1.107754 9.113 
616 680 -6.350696 -1.172154 4.213 
632 680 -6.203168 -1.143421 3.429 
648 680 -6.130556 -1.358274 4.227 
664 680 -6.095296 -1.414862 4.175 
680 680 -6.016481 -1.275791 3.877 
696 680 -6.171441 -1.132155 2.395 
712 680 -6.403298 -1.109635 1.958 
728 680 -6.444557 -1.239653 2.020 
744 680 -6.524935 -1.545856 2.396 
760 680 -6.361802 -1.381622 2.915 
776 680 -5.915671 -1.305874 3.778 
792 680 -5.535245 -1.543818 4.564 
808 680 -5.166754 -1.828162 3.764 
824 680 -4.963036 -1.785342 4.264 
840 680 -4.739962 -1.752761 3.655 
856 680 -4.516669 -1.711993 3.081 
872 680 -4.410103 -1.693753 1.769 
888 680 -4.437793 -1.760365 2.212 
904 680 -4.206875 -1.768141 2.779 
920 680 -3.909172 -1.658024 5.473 
936 680 -3.754802 -1.559710 3.552 
952 680 -3.926909 -1.453690 2.213 
968 680 -4.146546 -1.512301 1.998 
984 680 -4.146568 -1.565786 3.646 
1000 680 -4.145634 -1.414464 2.507 
1016 680 -3.582828 -1.328260 3.541 
1032 680 -3.343259 -1.417754 2.149 
1048 680 -3.617045 -1.365668 3.528 
1064 680 -3.652925 -1.010359 2.845 
1080 680 -3.515916 -1.067175 2.644 
1096 680 -3.270113 -1.269185 1.897 
1112 680 -3.263549 -1.407305 2.134 
1128 680 -3.570827 -1.357834 3.620 
1144 680 -3.505535 -1.309279 1.155 
1160 680 -3.563916 -1.036788 1.330 
1176 680 -3.519409 -0.763996 1.184 
1192 680 -2.446741 -1.112806 2.081 
1208 680 -1.125580 0.069042 1.002 
1224 680 0.900474 3.201216 1.004 
1240 680 -0.038038 5.430474 1.365 
1256 680 -0.976550 7.659733 1.362 
1272 680 -5.337300 3.582839 1.319 
8 664 0.502119 1.063810 1.148 
24 664 1.530147 5.027808 1.124 
40 664 -2.357946 8.024771 1.319 
56 664 -6.246771 9.331413 1.009 
72 664 -5.306733 4.277291 1.034 
88 664 -6.009747 2.661498 1.593 
104 664 -5.956594 -0.154165 1.289 
120 664 -6.808373 0.169862 1.693 
136 664 -7.110599 0.818062 1.374 
152 664 -6.880164 0.899219 1.689 
168 664 -6.635564 0.550992 1.828 
184 664 -6.459705 0.424680 3.005 
200 664 -6.568956 0.046010 1.783 
216 664 -6.791063 -0.227605 1.728 
232 664 -6.855724 -0.010235 2.009 
248 664 -6.668746 0.033560 2.663 
264 664 -6.554913 0.019876 2.303 
280 664 -6.750353 0.258806 2.286 
296 664 -6.813052 0.229379 3.310 
312 664 -6.786679 0.093822 1.249 
328 664 -6.714890 -0.084260 1.829 
344 664 -6.453118 -0.253596 7.051 
360 664 -6.305467 -0.417259 1.166 
376 664 -6.333648 -0.511651 1.487 
392 664 -6.390303 -0.590834 2.328 
408 664 -6.231623 -0.729110 2.071 
424 664 -6.306376 -0.927093 2.184 
440 664 -6.450112 -1.013684 2.930 
456 664 -6.237248 -1.037682 1.935 
472 664 -6.391448 -1.035442 1.445 
488 664 -6.466629 -0.712581 1.365 
504 664 -6.448019 -0.824166 1.693 
520 664 -6.333712 -1.066605 2.740 
536 664 -6.014313 -1.136124 1.535 
552 664 -5.797506 -1.375899 2.527 
568 664 -6.051150 -1.468279 2.619 
584 664 -6.171045 -1.247737 7.226 
600 664 -6.283129 -1.196924 4.989 
616 664 -6.293568 -1.292001 3.098 
632 664 -6.200915 -1.254611 2.821 
648 664 -6.157701 -1.193741 2.843 
664 664 -6.223476 -1.191898 3.309 
680 664 -6.189402 -1.253006 2.671 
696 664 -6.161133 -1.392003 3.378 
712 664 -6.161062 -1.377636 1.707 
728 664 -6.283714 -1.413378 2.136 
744 664 -6.412134 -1.441410 2.181 
760 664 -6.080251 -1.251741 3.911 
776 664 -5.689732 -1.215608 4.763 
792 664 -5.283971 -1.585906 5.389 
808 664 -4.836311 -1.824055 3.570 
824 664 -4.815974 -1.724902 3.310 
840 664 -4.794827 -1.617844 2.293 
856 664 -4.632145 -1.530924 3.875 
872 664 -4.675892 -1.510199 3.253 
888 664 -4.676963 -1.596412 1.015 
904 664 -4.396144 -1.895010 1.631 
920 664 -4.252438 -1.615052 1.803 
936 664 -4.122742 -1.291455 2.007 
952 664 -4.428564 -1.253353 1.782 
968 664 -4.161467 -1.367599 2.461 
984 664 -4.150952 -1.310022 2.674 
1000 664 -3.783262 -1.406924 2.783 
1016 664 -3.576315 -1.269758 1.893 
1032 664 -3.433814 -1.199429 1.758 
1048 664 -3.483550 -1.186701 4.233 
1064 664 -3.498828 -1.146466 2.600 
1080 664 -3.498785 -0.894358 2.746 
1096 664 -3.287509 -0.989977 2.882 
1112 664 -3.256114 -1.163709 2.964 
1128 664 -3.400841 -1.206779 3.035 
1144 664 -3.134556 -1.111610 1.965 
1160 664 -3.101203 -1.062415 1.271 
1176 664 -3.041149 -0.952091 3.257 
1192 664 -2.714231 -0.423398 2.320 
1208 664 -1.607631 0.526983 1.813 
1224 664 -0.140776 1.819161 1.157 
1240 664 -0.225029 2.827668 1.054 
1256 664 -2.333938 4.604434 1.018 
1272 664 -5.514082 2.672461 1.013 
8 648 -0.090094 -8.143957 1.119 
24 648 -0.459621 -7.270946 1.072 
40 648 -2.925369 -2.067463 1.303 
56 648 -4.192498 1.451806 1.098 
72 648 -4.363887 1.257500 1.063 
88 648 -5.823068 0.841577 1.121 
104 648 -4.877695 -0.240563 1.698 
120 648 -6.391921 0.293705 4.014 
136 648 -7.029045 0.603206 3.267 
152 648 -6.804800 0.713421 1.134 
168 648 -6.405262 0.510683 2.227 
184 648 -6.243298 0.409448 4.175 
200 648 -6.376796 0.181484 2.942 
216 648 -6.546252 -0.001419 2.123 
232 648 -6.566534 -0.001622 1.838 
248 648 -6.400046 0.053562 2.233 
264 648 -6.451415 -0.069387 1.830 
280 648 -6.891387 0.001117 1.678 
296 648 -6.631090 -0.123224 2.133 
312 648 -6.655214 -0.194431 1.289 
328 648 -6.742590 -0.231732 1.830 
344 648 -6.659039 -0.451538 2.119 
360 648 -6.454346 -0.620266 2.440 
376 648 -6.465360 -0.462593 1.790 
392 648 -6.308839 -0.455829 2.119 
408 648 -6.080883 -0.696400 1.358 
424 648 -6.231890 -1.002529 1.861 
440 648 -6.302538 -0.837455 4.007 
456 648 -6.443666 -0.789842 2.338 
472 648 -6.744111 -0.706634 1.538 
488 648 -6.744400 -0.559633 2.098 
504 648 -6.532992 -0.662358 1.945 
520 648 -6.354124 -0.906130 2.560 
536 648 -6.038608 -0.996524 3.163 
552 648 -5.918810 -1.010181 2.581 
568 648 -6.072910 -1.440053 2.566 
584 648 -6.386971 -1.196736 5.229 
600 648 -6.563320 -1.240779 3.745 
616 648 -6.487188 -1.403699 3.215 
632 648 -6.252329 -1.450700 3.235 
648 648 -6.237899 -1.245494 2.556 
664 648 -6.251635 -1.052547 3.447 
680 648 -6.213027 -1.243683 2.843 
696 648 -6.208951 -1.460858 2.852 
712 648 -6.223475 -1.518281 3.135 
728 648 -6.287267 -1.571688 2.749 
744 648 -6.336268 -1.618399 2.501 
760 648 -6.049442 -1.329630 2.587 
776 648 -5.610360 -1.288058 5.558 
792 648 -5.191199 -1.727397 3.260 
808 648 -4.723249 -2.039034 3.194 
824 648 -4.638578 -2.027985 3.863 
840 648 -4.787669 -1.696829 2.367 
856 648 -4.614042 -1.772254 2.509 
872 648 -4.655337 -1.705518 2.746 
888 648 -4.769767 -1.646024 2.692 
904 648 -4.751945 -1.732224 5.173 
920 648 -4.605939 -1.482681 4.301 
936 648 -4.379138 -1.304317 6.627 
952 648 -4.352005 -1.250077 3.034 
968 648 -4.244413 -1.244997 3.263 
984 648 -3.869427 -1.186581 2.122 
1000 648 -3.635332 -1.154788 2.666 
1016 648 -3.772930 -1.201173 2.726 
1032 648 -3.798552 -1.018304 2.587 
1048 648 -3.692095 -0.959559 3.720 
1064 648 -3.558390 -0.940304 4.761 
1080 648 -3.542907 -0.852179 2.723 
1096 648 -3.413230 -0.828833 5.207 
1112 648 -3.345878 -0.901953 4.213 
1128 648 -3.306951 -1.054118 3.034 
1144 648 -2.971536 -0.980584 3.448 
1160 648 -2.930460 -1.084882 2.423 
1176 648 -3.008909 -0.764222 1.924 
1192 648 -2.949634 -0.296504 2.061 
1208 648 -1.770775 0.125370 2.740 
1224 648 -1.182027 0.437107 1.146 
1240 648 -0.947213 0.021934 1.486 
1256 648 -3.425191 2.412481 2.039 
1272 648 -5.608465 3.826341 2.043 
8 632 -0.024355 -2.160258 1.090 
24 632 -0.373745 -7.771146 1.116 
40 632 -2.480938 -7.204382 1.216 
56 632 -1.958266 -5.632860 1.169 
72 632 -0.520970 -2.942653 1.630 
88 632 -3.440412 -0.036552 1.520 
104 632 -4.413550 -0.040066 1.020 
120 632 -5.986977 0.424736 2.064 
136 632 -6.723170 0.698921 1.893 
152 632 -6.729436 0.527623 1.631 
168 632 -6.431500 0.444529 2.060 
184 632 -6.250563 0.412144 2.476 
200 632 -6.439916 0.299609 1.811 
216 632 -6.528519 0.128449 2.184 
232 632 -6.474985 0.063092 2.988 
248 632 -6.410811 0.018204 1.700 
264 632 -6.563282 -0.213866 2.976 
280 632 -6.675796 -0.156150 2.363 
296 632 -6.486518 -0.267419 2.378 
312 632 -6.494788 -0.431151 1.471 
328 632 -6.687801 -0.326473 1.021 
344 632 -6.665014 -0.291323 1.134 
360 632 -6.457119 -0.508711 2.104 
376 632 -6.463112 -0.659555 1.664 
392 632 -6.424073 -0.678390 1.701 
408 632 -6.145652 -0.873384 1.349 
424 632 -6.059745 -0.942385 1.137 
440 632 -6.033607 -0.732749 3.245 
456 632 -6.347157 -0.576921 1.644 
472 632 -6.617591 -0.514120 1.870 
488 632 -6.645493 -0.464072 1.909 
504 632 -6.478222 -0.846121 3.283 
520 632 -6.366105 -1.076057 2.771 
536 632 -6.183497 -0.871474 2.962 
552 632 -6.188983 -0.797152 1.839 
568 632 -6.528211 -1.080261 2.024 
584 632 -6.741817 -1.048994 2.945 
600 632 -6.668976 -0.932928 4.014 
616 632 -6.476588 -1.123415 2.186 
632 632 -6.097029 -1.370686 3.851 
648 632 -6.211118 -1.408079 3.440 
664 632 -6.191362 -1.247976 4.179 
680 632 -6.019450 -1.274582 3.255 
696 632 -6.078716 -1.502133 2.937 
712 632 -6.183847 -1.620968 2.914 
728 632 -6.340599 -1.674376 2.731 
744 632 -6.366863 -1.745373 3.692 
760 632 -6.233087 -1.517913 2.525 
776 632 -5.764805 -1.583733 1.926 
792 632 -5.107912 -1.977195 1.527 
808 632 -4.830904 -2.354232 1.979 
824 632 -4.809127 -2.208838 3.902 
840 632 -4.847931 -1.852070 1.943 
856 632 -4.698603 -1.898096 3.312 
872 632 -4.737684 -1.793326 2.935 
888 632 -4.816846 -1.722420 4.026 