TITLE = "B00392"
VARIABLES = "x", "y", "u", "v", "sn"
ZONE T="Frame 0", I=80, J=50
8 792 0.000000 -0.000000 1.577 
24 792 0.000000 -0.000000 1.630 
40 792 0.000000 -0.000000 1.582 
56 792 1.530926 -13.910864 1.008 
72 792 -1.179990 -11.746705 1.067 
88 792 -3.890906 -9.582545 1.036 
104 792 -2.782010 -8.522442 1.327 
120 792 -1.673115 -7.462339 1.044 
136 792 0.949935 -7.039986 1.773 
152 792 3.572984 -6.617634 5.164 
168 792 -5.785175 0.112478 1.043 
184 792 -7.110144 1.230802 4.531 
200 792 -8.435113 2.349127 4.551 
216 792 -7.905494 1.298004 1.939 
232 792 -7.911024 1.210223 1.619 
248 792 -7.716525 1.186212 2.276 
264 792 -7.630222 1.388625 3.007 
280 792 -7.621347 1.448888 2.537 
296 792 -7.850394 1.033173 3.558 
312 792 -8.040175 1.047073 3.226 
328 792 -8.119911 1.245832 1.965 
344 792 -8.187411 0.931760 3.051 
360 792 -7.989700 0.928348 2.451 
376 792 -8.074891 1.169749 3.648 
392 792 -8.224990 1.183999 2.488 
408 792 -7.965827 0.602817 4.613 
424 792 -7.651451 0.268951 3.392 
440 792 -7.520256 0.359186 3.179 
456 792 -7.716205 0.476719 3.042 
472 792 -7.926632 0.413208 4.893 
488 792 -8.002777 0.239525 3.802 
504 792 -8.032696 -0.175333 2.971 
520 792 -8.040083 -0.399228 4.385 
536 792 -7.964965 -0.260801 2.306 
552 792 -7.877318 -0.353080 1.832 
568 792 -7.709015 -0.360637 2.339 
584 792 -7.475666 -0.166300 3.327 
600 792 -7.379436 -0.519302 3.239 
616 792 -7.361736 -0.962411 3.479 
632 792 -7.448482 -0.885520 3.638 
648 792 -7.425316 -0.649315 2.834 
664 792 -7.558052 -0.649420 2.374 
680 792 -7.651430 -0.952272 1.740 
696 792 -7.025159 -0.970726 1.897 
712 792 -6.818776 -0.644336 1.179 
728 792 -6.493170 -0.231274 2.741 
744 792 -6.526067 -0.063014 1.049 
760 792 -6.558964 0.105246 1.147 
776 792 -6.854464 0.127095 1.342 
792 792 -5.926699 0.483408 2.258 
808 792 -5.722431 0.771415 1.958 
824 792 -5.573595 1.006799 1.422 
840 792 -4.887413 1.430276 2.673 
856 792 -4.237907 1.544642 4.335 
872 792 -3.853743 0.925300 1.845 
888 792 -3.857427 0.559033 1.172 
904 792 -4.259538 1.206910 2.718 
920 792 -5.436463 1.984467 1.774 
936 792 -5.474316 2.327232 1.817 
952 792 -5.512169 2.669997 3.569 
968 792 -5.550021 3.012761 2.652 
984 792 -5.613442 2.527373 12.665 
1000 792 -6.026912 2.016334 4.079 
1016 792 -5.952577 1.659680 1.930 
1032 792 -6.387648 0.902162 2.189 
1048 792 -6.934331 0.186171 2.871 
1064 792 -7.705922 0.329636 1.620 
1080 792 -7.443635 0.430958 1.969 
1096 792 -7.105090 -0.043048 1.301 
1112 792 -6.913799 -0.729596 1.514 
1128 792 -6.011663 -0.893347 1.194 
1144 792 1.655866 -2.069104 1.090 
1160 792 9.323394 -3.244861 1.132 
1176 792 9.318191 -3.454619 1.026 
1192 792 6.663738 0.218619 1.116 
1208 792 3.503363 5.310674 1.039 
1224 792 -0.413647 11.422594 1.202 
1240 792 0.000000 -0.000000 1.052 
1256 792 0.000000 -0.000000 1.037 
1272 792 0.000000 -0.000000 1.048 
8 776 23.922509 -3.115682 1.538 
24 776 26.763454 -10.187414 1.575 
40 776 23.324496 -11.864559 1.676 
56 776 6.560506 -19.284409 1.005 
72 776 0.235687 -8.341489 1.011 
88 776 -1.782645 -5.226262 1.030 
104 776 -0.476996 3.511801 1.261 
120 776 1.182056 -0.532495 1.149 
136 776 2.473409 -6.075805 1.670 
152 776 -0.469395 -4.094324 5.085 
168 776 -4.912987 -0.186552 1.043 
184 776 -8.092868 2.113677 4.589 
200 776 -8.410846 2.083853 4.829 
216 776 -8.118755 1.396693 1.916 
232 776 -7.902220 1.269271 1.578 
248 776 -7.633791 1.196140 2.259 
264 776 -7.591406 1.320537 3.229 
280 776 -7.556676 1.330512 2.354 
296 776 -7.758154 1.021644 3.639 
312 776 -7.954550 0.974955 3.128 
328 776 -8.026995 1.100523 2.023 
344 776 -8.092132 0.834587 3.235 
360 776 -7.888433 0.856573 2.323 
376 776 -8.007023 1.042126 3.913 
392 776 -8.198623 1.053074 2.516 
408 776 -7.985626 0.693803 6.283 
424 776 -7.646759 0.429874 6.680 
440 776 -7.510432 0.393706 2.797 
456 776 -7.701500 0.452306 3.133 
472 776 -7.914654 0.397211 5.389 
488 776 -7.989750 0.237323 3.884 
504 776 -7.992086 -0.126899 2.956 
520 776 -7.994108 -0.329308 4.415 
536 776 -7.896413 -0.193724 2.415 
552 776 -7.817024 -0.307116 1.879 
568 776 -7.678910 -0.368206 2.387 
584 776 -7.467935 -0.238511 3.126 
600 776 -7.332744 -0.509083 3.033 
616 776 -7.284147 -0.879112 3.275 
632 776 -7.322980 -0.824296 3.605 
648 776 -7.271847 -0.617446 2.743 
664 776 -7.358915 -0.572898 2.324 
680 776 -7.476141 -0.780560 1.878 
696 776 -6.884045 -0.777664 1.864 
712 776 -6.729235 -0.494763 1.148 
728 776 -6.348718 -0.194166 2.595 
744 776 -6.087944 -0.030218 1.027 
760 776 -6.411488 -0.189076 1.169 
776 776 -6.645473 -0.242086 1.376 
792 776 -5.842750 0.226634 2.444 
808 776 -5.693324 0.559680 1.935 
824 776 -5.552270 0.914022 1.373 
840 776 -4.980527 1.460343 2.702 
856 776 -4.362373 1.676696 4.690 
872 776 -4.004937 1.120607 1.743 
888 776 -3.862170 0.773099 1.130 
904 776 -4.095800 1.408188 2.742 
920 776 -4.946170 2.156523 1.863 
936 776 -5.335016 2.803815 1.750 
952 776 -5.307980 3.088686 3.600 
968 776 -5.276224 2.990253 2.578 
984 776 -5.388841 2.544676 13.893 
1000 776 -5.959852 2.067661 1.485 
1016 776 -6.036891 1.767652 1.928 
1032 776 -6.482624 1.090549 2.364 
1048 776 -6.940999 0.400015 2.719 
1064 776 -7.331594 0.292120 1.765 
1080 776 -7.466599 0.441868 2.053 
1096 776 -7.558092 -0.056412 1.586 
1112 776 -7.950434 -0.503671 1.492 
1128 776 -8.022044 -0.954070 1.193 
1144 776 -6.205409 -1.368855 1.072 
1160 776 2.380497 -2.933944 1.142 
1176 776 6.268160 -2.687889 1.052 
1192 776 4.426073 2.314515 1.064 
1208 776 2.807697 7.143846 1.021 
1224 776 0.305530 12.814086 1.086 
1240 776 -0.208129 11.951658 1.063 
1256 776 -0.721788 11.089230 1.086 
1272 776 -0.766133 10.359521 1.106 
8 760 33.843233 -11.207715 1.079 
24 760 30.004896 -14.643976 1.053 
40 760 26.166559 -18.080237 1.045 
56 760 13.581608 -18.627896 1.176 
72 760 4.875963 -9.773667 1.111 
88 760 0.325617 -0.869978 1.113 
104 760 2.243621 -0.176528 1.153 
120 760 2.451669 -1.246795 1.395 
136 760 2.469478 -4.068435 1.270 
152 760 -0.351678 -2.968033 1.000 
168 760 -4.315302 -0.378511 1.046 
184 760 -7.558846 1.763030 2.838 
200 760 -8.220827 1.901455 2.530 
216 760 -8.068478 1.572864 1.212 
232 760 -7.530989 1.376861 1.814 
248 760 -7.438544 1.253574 2.706 
264 760 -7.551919 1.065098 2.104 
280 760 -7.441417 1.188593 3.461 
296 760 -7.589892 1.040191 1.808 
312 760 -7.833560 0.927523 2.137 
328 760 -7.873497 0.951488 1.986 
344 760 -7.682858 0.830161 2.985 
360 760 -7.622122 0.786548 2.066 
376 760 -7.876586 0.829485 2.648 
392 760 -8.086762 0.679937 4.042 
408 760 -8.018139 0.485199 5.747 
424 760 -7.626239 0.348103 4.343 
440 760 -7.484241 0.189846 2.160 
456 760 -7.720187 0.328644 4.034 
472 760 -7.889750 0.375091 2.744 
488 760 -7.934065 0.273394 3.363 
504 760 -7.902293 -0.003556 3.319 
520 760 -7.840812 -0.115746 3.284 
536 760 -7.637625 -0.094096 4.307 
552 760 -7.521228 -0.116600 5.837 
568 760 -7.599163 -0.380121 2.327 
584 760 -7.578831 -0.611855 2.638 
600 760 -7.312901 -0.612245 4.525 
616 760 -7.145858 -0.639025 3.246 
632 760 -7.090720 -0.563031 3.081 
648 760 -6.977826 -0.380100 5.334 
664 760 -6.895310 -0.505496 3.845 
680 760 -7.082879 -0.380222 2.100 
696 760 -6.716429 -0.361092 2.367 
712 760 -6.656598 0.276096 1.166 
728 760 -6.192749 0.129977 1.173 
744 760 -5.795507 -0.368834 1.104 
760 760 -5.962486 -0.248605 1.584 
776 760 -6.020595 -0.487398 2.207 
792 760 -5.600313 -0.266472 3.861 
808 760 -5.722378 0.363663 2.696 
824 760 -5.601586 0.941688 2.398 
840 760 -5.132679 1.431059 4.965 
856 760 -4.606888 1.802058 3.770 
872 760 -4.561098 1.949756 2.434 
888 760 -4.154818 1.761904 1.653 
904 760 -3.632732 1.403160 1.863 
920 760 -3.517776 1.622459 1.903 
936 760 -4.179945 2.095216 3.145 
952 760 -4.573599 2.909857 2.201 
968 760 -4.777240 2.891714 6.277 
984 760 -5.074023 2.364145 1.768 
1000 760 -5.635018 1.975572 2.454 
1016 760 -6.010167 1.610575 1.784 
1032 760 -6.403722 1.251519 5.633 
1048 760 -6.767029 0.755300 3.674 
1064 760 -6.957265 0.254605 2.184 
1080 760 -7.061085 0.426489 2.515 
1096 760 -7.034694 -0.138476 1.698 
1112 760 -7.773208 -0.724719 1.443 
1128 760 -8.332451 -1.395214 2.176 
1144 760 -7.547878 -1.888654 1.558 
1160 760 -3.894305 -2.027125 1.067 
1176 760 -0.417080 -1.269996 1.130 
1192 760 2.366389 -0.097892 1.181 
1208 760 1.457824 3.780738 1.174 
1224 760 1.493510 3.036168 1.120 
1240 760 0.677421 -2.001212 1.251 
1256 760 -0.492187 7.866498 1.037 
1272 760 -1.115160 8.334093 1.105 
8 744 33.312216 -12.031303 1.035 
24 744 29.104345 -15.491189 1.057 
40 744 24.501013 -18.615127 1.258 
56 744 17.653795 -19.142760 1.201 
72 744 8.409358 -14.337799 1.439 
88 744 2.352769 -8.938543 1.069 
104 744 1.269861 -2.256474 1.593 
120 744 2.109177 -4.283799 1.097 
136 744 0.304840 -2.773639 1.287 
152 744 -1.219469 -2.048980 1.288 
168 744 -3.792250 -0.259821 1.593 
184 744 -7.259323 1.686821 2.040 
200 744 -7.770997 1.880809 1.418 
216 744 -7.591369 1.501911 1.568 
232 744 -7.464809 1.418067 1.562 
248 744 -7.566263 1.292413 1.907 
264 744 -7.763369 0.760969 1.384 
280 744 -7.557392 0.897333 2.158 
296 744 -7.531410 0.988345 2.822 
312 744 -7.636523 0.927987 2.847 
328 744 -7.503979 0.815097 3.003 
344 744 -7.240110 0.811655 2.061 
360 744 -7.097979 0.930038 1.751 
376 744 -7.220457 0.480716 1.271 
392 744 -7.824241 0.330882 3.751 
408 744 -7.858389 0.294808 3.498 
424 744 -7.656099 0.337373 2.190 
440 744 -7.489447 0.077514 1.925 
456 744 -7.551552 0.235559 3.532 
472 744 -7.637296 0.368016 2.545 
488 744 -7.727402 0.264892 3.563 
504 744 -7.708161 0.152464 2.700 
520 744 -7.715623 0.185670 2.687 
536 744 -7.657787 0.039795 3.673 
552 744 -7.427529 -0.002623 3.235 
568 744 -7.715032 -0.580391 1.510 
584 744 -7.597218 -0.671705 2.447 
600 744 -7.341607 -0.586539 3.239 
616 744 -7.167982 -0.436807 1.996 
632 744 -6.795122 -0.415115 2.274 
648 744 -6.462311 -0.322451 3.359 
664 744 -6.594343 -0.163394 4.854 
680 744 -6.673659 0.013318 2.416 
696 744 -6.565655 0.118414 2.340 
712 744 -6.486432 0.369163 2.744 
728 744 -5.941886 0.321155 2.017 
744 744 -5.507992 -0.133818 1.744 
760 744 -5.513484 -0.308134 2.194 
776 744 -5.395718 -0.732709 2.643 
792 744 -5.185227 -0.624335 2.742 
808 744 -5.288745 0.309872 3.624 
824 744 -5.374987 0.624998 1.631 
840 744 -5.125754 1.035292 2.634 
856 744 -4.751333 1.531488 2.583 
872 744 -4.262006 1.812219 1.056 
888 744 -3.836061 1.853807 1.296 
904 744 -3.118438 1.819003 3.155 
920 744 -2.994511 1.932833 3.261 
936 744 -3.514236 2.162673 2.220 
952 744 -3.919505 2.778088 1.619 
968 744 -4.051885 2.653519 6.272 
984 744 -4.452505 2.038437 2.198 
1000 744 -5.178154 1.694649 2.078 
1016 744 -5.828935 1.470088 1.219 
1032 744 -6.311801 1.300070 10.107 
1048 744 -6.482020 0.749168 4.834 
1064 744 -6.482849 0.133976 3.107 
1080 744 -6.734160 0.188326 2.916 
1096 744 -6.878296 0.041216 1.324 
1112 744 -7.129357 -0.669857 2.085 
1128 744 -8.174565 -1.073464 2.718 
1144 744 -8.156379 -1.156382 2.233 
1160 744 -7.181052 -2.140123 1.062 
1176 744 -2.968167 -2.060734 1.126 
1192 744 -0.863264 -0.624316 1.287 
1208 744 0.563072 1.076416 1.326 
1224 744 -0.700105 0.069621 1.230 
1240 744 -0.558762 -2.537841 1.004 
1256 744 0.716794 0.712180 1.056 
1272 744 3.726006 6.243266 1.009 
8 728 32.781199 -12.854892 1.219 
24 728 28.203795 -16.338401 1.229 
40 728 22.835468 -19.150017 1.101 
56 728 16.919049 -16.943894 1.150 
72 728 6.836087 -9.962539 1.211 
88 728 1.108890 -4.742450 1.097 
104 728 0.296101 -4.336420 1.050 
120 728 -1.786735 -2.076660 1.008 
136 728 -2.691151 -1.085489 1.244 
152 728 -3.574376 -0.367762 1.231 
168 728 -5.985597 0.723387 3.498 
184 728 -7.769915 1.724055 2.804 
200 728 -7.598828 1.609303 1.453 
216 728 -7.461941 1.345000 2.770 
232 728 -7.443518 1.314279 2.141 
248 728 -7.711264 1.244051 2.177 
264 728 -7.663234 0.982731 3.221 
280 728 -7.529080 0.824633 2.783 
296 728 -7.419883 0.947306 3.459 
312 728 -7.521647 0.819113 2.532 
328 728 -7.492894 0.650011 2.492 
344 728 -7.168280 0.739805 1.660 
360 728 -7.031611 0.829677 2.091 
376 728 -7.301477 0.890147 1.265 
392 728 -7.612451 0.493276 2.522 
408 728 -7.673048 0.546692 1.251 
424 728 -7.548695 0.690313 1.182 
440 728 -7.429493 0.451363 1.603 
456 728 -7.293300 0.263543 3.609 
472 728 -7.220433 0.434175 2.392 
488 728 -7.370921 0.045098 1.814 
504 728 -7.577519 -0.053404 1.293 
520 728 -7.831605 0.165678 1.942 
536 728 -7.751135 0.102730 2.077 
552 728 -7.354907 -0.143078 2.453 
568 728 -7.629027 -0.582251 1.510 
584 728 -7.615605 -0.731554 1.089 
600 728 -7.228559 -0.173957 2.493 
616 728 -7.116577 -0.112512 2.214 
632 728 -6.678484 -0.376035 1.546 
648 728 -6.363638 -0.331836 1.925 
664 728 -6.461546 -0.017224 3.864 
680 728 -6.552162 0.175570 1.654 
696 728 -6.533816 0.346833 2.377 
712 728 -6.312460 0.423802 3.648 
728 728 -5.815170 0.545635 2.594 
744 728 -5.405428 0.221695 2.709 
760 728 -5.136334 0.042826 1.747 
776 728 -4.654446 0.030818 2.568 
792 728 -4.842411 -0.220718 2.656 
808 728 -4.694950 0.242954 1.666 
824 728 -4.716453 0.554863 2.216 
840 728 -4.550564 0.829236 1.669 
856 728 -4.131631 1.107510 2.141 
872 728 -3.858142 1.509937 1.749 
888 728 -3.588109 1.815056 2.375 
904 728 -3.227819 1.991677 2.147 
920 728 -3.143531 2.156572 3.694 
936 728 -3.489728 2.355685 1.471 
952 728 -3.879543 2.922266 2.563 
968 728 -4.013127 2.916553 3.203 
984 728 -4.499812 1.993207 2.145 
1000 728 -5.186288 1.494804 1.836 
1016 728 -5.802251 1.371743 4.007 
1032 728 -6.133068 1.180198 4.297 
1048 728 -5.985040 0.536044 2.753 
1064 728 -5.996466 0.091864 2.611 
1080 728 -6.565479 0.218962 2.499 
1096 728 -6.943715 0.204027 1.662 
1112 728 -6.710627 0.170987 2.871 
1128 728 -7.343851 -0.100019 2.318 
1144 728 -8.111278 -0.905784 2.087 
1160 728 -7.832018 -0.985508 1.331 
1176 728 -5.519254 -2.851472 1.075 
1192 728 -2.371705 -0.962578 1.129 
1208 728 -1.862565 1.608360 1.208 
1224 728 -3.558789 2.731453 1.111 
1240 728 -2.338915 1.107342 1.038 
1256 728 1.531454 -1.651049 1.095 
1272 728 8.567172 4.152439 1.052 
8 712 22.438221 -2.051864 1.083 
24 712 17.924184 -2.191841 1.152 
40 712 14.467645 -11.127254 1.210 
56 712 10.981872 -11.590405 1.174 
72 712 2.883521 -5.278197 1.010 
88 712 -2.393912 -0.406090 1.018 
104 712 -5.094630 1.719307 1.501 
120 712 -5.586958 1.312513 1.195 
136 712 -5.837609 0.652531 3.802 
152 712 -6.416021 1.129500 3.352 
168 712 -7.325824 1.644406 2.851 
184 712 -7.728990 1.622520 6.060 
200 712 -7.520250 1.534138 5.493 
216 712 -7.447100 1.332850 6.435 
232 712 -7.379507 1.255233 6.233 
248 712 -7.542326 1.137034 3.474 
264 712 -7.500215 0.998144 1.298 
280 712 -7.418696 1.002884 1.510 
296 712 -7.378532 1.110711 2.655 
312 712 -7.577088 0.914369 2.712 
328 712 -7.736156 0.719986 3.797 
344 712 -7.529386 0.900506 2.880 
360 712 -7.432628 1.100058 1.970 
376 712 -7.478917 1.372766 1.690 
392 712 -7.579684 0.907109 2.339 
408 712 -7.493005 0.982269 1.221 
424 712 -7.455400 0.878228 1.033 
440 712 -7.496147 0.660349 1.853 
456 712 -7.461242 0.352583 2.520 
472 712 -7.435997 0.411713 1.513 
488 712 -7.345453 -0.115961 3.352 
504 712 -7.520432 -0.162560 3.922 
520 712 -7.760603 0.042670 2.234 
536 712 -7.562663 0.000358 1.918 
552 712 -7.115534 -0.208012 2.425 
568 712 -6.892054 -0.428732 1.909 
584 712 -6.762366 -0.558351 1.055 
600 712 -6.981650 -0.051088 2.903 
616 712 -6.972896 0.213703 3.636 
632 712 -6.697260 -0.065030 2.476 
648 712 -6.490979 -0.108599 2.527 
664 712 -6.254611 -0.015101 4.494 
680 712 -6.276669 0.144890 2.389 
696 712 -6.390501 0.323617 2.331 
712 712 -6.165837 0.436380 3.451 
728 712 -5.789888 0.551108 2.639 
744 712 -5.706429 0.497974 2.679 
760 712 -5.236202 0.322316 2.229 
776 712 -4.792417 0.230376 3.435 
792 712 -4.499594 0.182899 3.069 
808 712 -4.404872 0.331632 1.800 
824 712 -4.298572 0.638214 2.927 
840 712 -4.063973 0.794958 2.048 
856 712 -3.720377 1.052127 2.466 
872 712 -3.731600 1.486607 2.738 
888 712 -3.503884 1.748689 2.022 
904 712 -3.829930 2.222951 2.133 
920 712 -3.965746 2.487354 2.450 
936 712 -4.104065 2.563653 3.212 
952 712 -4.055495 3.089252 3.243 
968 712 -4.160676 2.943109 2.685 
984 712 -4.734854 1.940586 1.638 
1000 712 -5.403542 1.579742 1.546 
1016 712 -5.537752 1.326779 2.270 
1032 712 -5.749868 0.998308 2.610 
1048 712 -5.641545 0.405021 3.999 
1064 712 -5.482171 -0.095404 2.620 
1080 712 -5.881663 0.246906 2.682 
1096 712 -6.198728 0.136092 1.698 
1112 712 -6.171768 0.208461 2.713 
1128 712 -6.625304 -0.025493 2.343 
1144 712 -7.305580 -0.635169 14.063 
1160 712 -6.844727 -0.931709 25.006 
1176 712 -6.180857 -0.578765 20.000 
1192 712 -2.158932 -1.112677 1.033 
1208 712 -4.288202 2.140304 1.139 
1224 712 -6.417472 5.393286 1.224 
1240 712 -2.575642 2.255064 1.396 
1256 712 1.280458 -0.693243 1.221 
1272 712 13.408337 2.061612 1.229 
8 696 15.438548 -3.731927 1.124 
24 696 12.053958 -1.884924 1.173 
40 696 4.355805 -2.002044 1.081 
56 696 2.871175 -4.646807 1.001 
72 696 -1.912783 0.542231 1.022 
88 696 -4.478835 0.819696 1.128 
104 696 -6.281136 2.110873 1.302 
120 696 -7.185021 2.567830 1.075 
136 696 -7.728702 1.694454 2.539 
152 696 -7.775862 1.774194 2.807 
168 696 -7.465085 1.920613 2.075 
184 696 -7.347216 1.830557 4.417 
200 696 -7.317996 1.416077 6.904 
216 696 -7.266731 1.240165 6.488 
232 696 -7.191773 1.112754 7.134 
248 696 -7.313544 1.139595 1.429 
264 696 -7.349933 0.702381 1.844 
280 696 -7.236001 0.863986 3.540 
296 696 -7.461625 1.202000 4.043 
312 696 -7.649801 1.017353 2.118 
328 696 -7.536152 0.725776 2.468 
344 696 -7.491039 0.769726 2.686 
360 696 -7.539628 1.084704 2.947 
376 696 -7.588205 1.387351 2.166 
392 696 -7.308337 0.861056 2.277 
408 696 -7.130342 0.831455 1.366 
424 696 -7.402440 0.864368 1.693 
440 696 -7.432753 0.531207 2.621 
456 696 -7.460111 0.218564 1.465 
472 696 -7.427722 0.272528 1.467 
488 696 -7.383964 0.044604 3.820 
504 696 -7.582333 -0.079633 3.928 
520 696 -7.514819 -0.051286 2.737 
536 696 -7.141082 -0.007740 1.654 
552 696 -7.003966 -0.320935 1.567 
568 696 -6.868268 -0.419062 1.137 
584 696 -6.794828 -0.404155 2.213 
600 696 -6.824330 -0.033753 1.678 
616 696 -6.782025 0.106775 2.419 
632 696 -6.698346 0.102625 2.507 
648 696 -6.474733 0.066362 3.262 
664 696 -6.183282 -0.101541 4.011 
680 696 -6.098766 -0.082476 3.604 
696 696 -6.108688 -0.026574 3.568 
712 696 -6.064174 0.139627 4.175 
728 696 -5.988084 0.220059 3.280 
744 696 -5.851117 0.304227 2.616 
760 696 -5.238200 0.308673 2.277 
776 696 -4.334496 0.237405 1.860 
792 696 -3.835545 0.225367 2.651 
808 696 -4.025773 0.473186 2.362 
824 696 -3.888691 0.907010 1.741 
840 696 -3.562643 1.048296 1.806 
856 696 -3.790931 1.381795 2.155 
872 696 -3.695800 1.699532 2.061 
888 696 -3.763802 2.027892 1.376 
904 696 -4.197390 2.256645 1.262 
920 696 -4.326594 2.396868 2.132 
936 696 -4.686176 2.572200 2.497 
952 696 -4.903418 2.781714 1.425 
968 696 -4.540598 2.464971 4.491 
984 696 -4.566872 1.667369 1.759 
1000 696 -5.005018 1.408119 1.964 
1016 696 -5.105028 1.424864 2.606 
1032 696 -5.133769 1.148504 3.372 
1048 696 -5.118265 0.748006 2.946 
1064 696 -4.979568 0.333513 2.356 
1080 696 -5.197847 0.274850 3.869 
1096 696 -5.136890 0.115086 2.186 
1112 696 -5.329348 0.152598 2.414 
1128 696 -5.749047 -0.211497 3.450 
1144 696 -6.182592 -0.570429 5.848 
1160 696 -5.805261 -0.764700 7.996 
1176 696 -5.058108 -0.862346 2.660 
1192 696 -3.043007 -0.683708 1.026 
1208 696 -0.720730 1.090627 1.280 
1224 696 -5.523462 -0.448095 1.014 
1240 696 -2.247001 -0.091766 1.113 
1256 696 1.029461 0.264563 1.070 
1272 696 9.043311 1.843909 1.166 
8 680 8.438874 -5.411989 1.016 
24 680 6.183731 -1.578006 1.040 
40 680 -3.729242 4.524458 1.089 
56 680 -4.217126 2.633074 1.226 
72 680 -4.410834 0.660708 1.032 
88 680 -6.563758 2.045482 1.034 
104 680 -6.978353 2.406454 1.159 
120 680 -7.392948 2.767426 1.500 
136 680 -7.398661 1.617084 3.988 
152 680 -7.782017 1.699182 2.730 
168 680 -7.119952 1.723490 1.428 
184 680 -7.148345 1.678421 1.505 
200 680 -7.312819 1.352844 1.515 
216 680 -7.025953 1.227579 1.025 
232 680 -7.037336 1.180909 1.281 
248 680 -7.422782 1.124905 1.380 
264 680 -7.247143 0.827908 1.170 
280 680 -7.060515 1.044960 2.949 
296 680 -7.274817 1.321439 2.271 
312 680 -7.354676 1.038667 2.364 
328 680 -7.237456 0.674086 2.308 
344 680 -7.092267 0.592003 2.633 
360 680 -7.074535 0.995371 1.639 
376 680 -6.974200 0.806988 1.452 
392 680 -7.036990 0.815004 2.146 
408 680 -7.292931 0.592054 2.242 
424 680 -7.581809 0.345083 1.966 
440 680 -7.174720 0.267330 1.613 
456 680 -7.671841 0.115452 2.887 
472 680 -7.386800 0.052846 1.910 
488 680 -7.408562 0.094935 1.333 
504 680 -7.500620 0.243909 2.773 
520 680 -7.406414 -0.252863 1.896 
536 680 -7.327904 -0.266938 1.467 
552 680 -7.252789 -0.300131 2.154 
568 680 -7.167253 -0.431047 1.016 
584 680 -6.995012 -0.411140 2.375 
600 680 -6.944453 -0.278953 2.683 
616 680 -6.868244 -0.250963 2.646 
632 680 -6.689683 -0.159581 3.453 
648 680 -6.477613 -0.333780 2.687 
664 680 -6.235425 -0.557560 3.442 
680 680 -6.050731 -0.477729 2.746 
696 680 -5.989582 -0.227003 4.189 
712 680 -5.856828 -0.420148 2.691 
728 680 -5.692830 -0.456537 4.231 
744 680 -5.534905 -0.037161 2.513 
760 680 -5.069459 0.161951 2.526 
776 680 -4.042086 0.069020 2.159 
792 680 -3.884125 0.272866 3.003 
808 680 -3.666232 0.816936 2.641 
824 680 -3.775398 1.568788 3.244 
840 680 -3.569969 2.027642 2.323 
856 680 -3.793662 2.069980 2.257 
872 680 -3.558805 2.068062 2.787 
888 680 -3.775167 1.939691 1.812 
904 680 -4.268536 2.031474 1.509 
920 680 -4.236031 1.752492 1.618 
936 680 -4.244153 1.544837 1.570 
952 680 -4.666797 1.618547 1.399 
968 680 -4.534558 1.622893 2.333 
984 680 -4.367565 1.211091 1.144 
1000 680 -4.998714 1.249028 1.171 
1016 680 -5.135602 1.702366 1.173 
1032 680 -4.774324 1.612099 2.148 
1048 680 -4.772399 1.381575 2.115 
1064 680 -4.710947 1.162568 1.886 
1080 680 -4.742397 1.101970 1.113 
1096 680 -4.573435 0.712402 1.742 
1112 680 -4.385017 0.487016 2.719 
1128 680 -4.978892 0.044681 2.429 
1144 680 -5.227907 -0.106222 1.170 
1160 680 -4.765795 -0.597691 2.025 
1176 680 -4.277487 -0.681987 1.731 
1192 680 -3.927083 -0.254739 1.008 
1208 680 -1.524254 0.692814 1.495 
1224 680 -1.057999 0.471194 1.012 
1240 680 -0.034626 0.009836 1.266 
1256 680 0.647100 -0.139656 1.224 
1272 680 4.678286 1.626206 1.246 
8 664 -1.237337 4.765475 1.130 
24 664 1.872367 6.699758 1.112 
40 664 -9.554490 9.782153 1.020 
56 664 -9.637785 7.205309 1.030 
72 664 -8.836328 3.282934 1.176 
88 664 -6.190818 3.331832 1.094 
104 664 -7.140310 3.857145 1.055 
120 664 -6.990910 2.140439 1.105 
136 664 -7.068620 1.539713 2.479 
152 664 -7.040325 1.661937 1.398 
168 664 -7.010386 1.647163 1.906 
184 664 -7.230203 1.680204 2.392 
200 664 -7.039958 1.449206 2.347 
216 664 -6.895717 1.239102 1.510 
232 664 -6.996197 1.337966 1.201 
248 664 -7.641166 1.236296 1.750 
264 664 -7.673306 1.372217 1.745 
280 664 -7.164196 1.642710 1.543 
296 664 -7.206684 1.520040 1.778 
312 664 -7.445575 1.103196 2.462 
328 664 -7.093402 0.738871 3.065 
344 664 -6.877760 0.530878 3.715 
360 664 -6.826330 0.324488 2.142 
376 664 -6.892489 0.504215 2.420 
392 664 -7.206040 0.614463 3.041 
408 664 -7.698398 0.486481 2.256 
424 664 -7.737476 0.378661 2.272 
440 664 -7.377823 0.446205 1.023 
456 664 -7.486184 0.145416 1.151 
472 664 -7.475265 -0.089646 3.282 
488 664 -7.428169 0.077755 1.756 
504 664 -7.418674 -0.064864 1.296 
520 664 -7.271882 -0.248478 1.247 
536 664 -7.345718 -0.170357 1.216 
552 664 -7.444797 -0.129356 2.007 
568 664 -7.464325 -0.408601 2.001 
584 664 -7.313461 -0.627095 2.039 
600 664 -7.130614 -0.584895 1.320 
616 664 -7.020665 -0.686451 1.672 
632 664 -6.726497 -0.525222 2.516 
648 664 -6.617300 -0.498458 4.733 
664 664 -6.453888 -0.661780 4.429 
680 664 -6.373445 -0.451278 4.256 
696 664 -6.121437 -0.193806 2.353 
712 664 -5.766972 -0.663481 2.417 
728 664 -5.518783 -0.700429 4.916 
744 664 -5.332374 -0.336873 4.804 
760 664 -4.909575 -0.124191 2.717 
776 664 -4.355624 -0.118596 3.914 
792 664 -3.932706 0.320365 2.466 
808 664 -3.894252 1.084780 2.214 
824 664 -3.929920 1.879660 3.344 
840 664 -3.710827 2.270790 1.771 
856 664 -3.797790 2.174970 1.721 
872 664 -3.455226 2.294674 3.261 
888 664 -3.607551 1.858998 2.332 
904 664 -4.132207 1.754034 2.102 
920 664 -4.125644 1.379933 1.568 
936 664 -4.214474 1.159928 4.322 
952 664 -4.354226 0.996079 3.716 
968 664 -4.433500 1.007685 3.266 
984 664 -4.561274 1.024481 1.710 
1000 664 -5.429398 1.414159 2.022 
1016 664 -4.957028 1.731777 2.497 
1032 664 -4.720503 2.023416 3.558 
1048 664 -4.823366 1.831173 1.943 
1064 664 -4.807346 1.818737 2.778 
1080 664 -4.838392 1.490359 1.410 
1096 664 -4.959677 1.341408 1.151 
1112 664 -4.165673 0.502728 1.122 
1128 664 -4.580596 0.269892 1.142 
1144 664 -4.442072 0.359056 1.336 
1160 664 -4.572556 -0.181593 1.327 
1176 664 -4.443929 -0.950830 1.011 
1192 664 -4.272361 -1.259430 1.296 
1208 664 -2.327778 0.295001 1.248 
1224 664 -0.731476 0.200277 1.117 
1240 664 -0.075341 -0.706249 1.121 
1256 664 0.264740 -0.543876 1.628 
1272 664 0.313260 1.408503 1.745 
8 648 -6.513599 11.566612 1.231 
24 648 -4.271006 7.295066 1.101 
40 648 -8.399555 10.347822 1.227 
56 648 -8.209563 12.818581 1.136 
72 648 -6.514608 8.898544 1.396 
88 648 -5.817879 4.618182 1.261 
104 648 -6.960826 2.976833 1.491 
120 648 -6.978668 1.413524 3.016 
136 648 -6.812763 1.613606 2.412 
152 648 -6.549572 1.930311 1.439 
168 648 -6.422210 1.810580 1.867 
184 648 -6.949138 1.495537 2.318 
200 648 -6.982945 1.354830 3.561 
216 648 -6.825845 1.489342 3.437 
232 648 -7.102338 1.730169 1.410 
248 648 -7.523521 1.235119 1.201 
264 648 -7.570588 1.256876 1.948 
280 648 -7.242142 1.653571 1.414 
296 648 -7.205620 1.335350 1.972 
312 648 -7.346753 1.063894 2.628 
328 648 -7.263994 0.780257 2.683 
344 648 -7.097971 0.447793 3.081 
360 648 -7.030145 0.284923 2.343 
376 648 -7.249506 0.643543 2.436 
392 648 -7.154845 0.717552 1.900 
408 648 -7.475009 0.539582 1.868 
424 648 -7.196472 0.544509 3.286 
440 648 -7.181664 0.787181 1.681 
456 648 -7.165985 0.363870 1.536 
472 648 -7.292102 -0.018612 2.834 
488 648 -7.557826 -0.217878 2.446 
504 648 -7.295150 -0.322433 2.212 
520 648 -7.197517 -0.353525 2.026 
536 648 -7.133691 -0.338479 1.317 
552 648 -7.244408 -0.230299 3.042 
568 648 -7.530194 -0.336250 1.747 
584 648 -7.296956 -0.628619 1.134 
600 648 -7.167330 -0.755133 2.234 
616 648 -7.025550 -0.704515 2.909 
632 648 -6.892108 -0.441551 2.207 
648 648 -6.779243 -0.427380 1.853 
664 648 -6.720740 -0.527896 3.561 
680 648 -6.640166 -0.315202 3.544 
696 648 -6.473060 -0.166027 2.279 
712 648 -5.727827 -0.295500 2.151 
728 648 -5.509199 -0.279013 3.632 
744 648 -5.307246 -0.084740 2.945 
760 648 -4.928026 -0.098580 1.249 
776 648 -4.574022 0.123081 2.582 
792 648 -4.345535 0.710016 2.061 
808 648 -4.189647 1.226499 1.815 
824 648 -4.050502 1.565635 2.430 
840 648 -3.997945 2.020302 3.551 
856 648 -3.801918 2.279960 2.589 
872 648 -3.410136 2.057902 2.299 
888 648 -3.364161 1.730022 3.675 
904 648 -3.905471 1.695969 1.498 
920 648 -4.211827 1.619363 3.064 
936 648 -4.181176 1.508819 2.884 
952 648 -4.147945 1.269759 1.767 
968 648 -4.147382 0.922357 2.266 
984 648 -4.770809 1.328171 3.092 
1000 648 -4.865906 1.629405 4.576 
1016 648 -4.778455 1.761187 2.298 
1032 648 -4.373686 1.780647 1.457 
1048 648 -4.493065 1.485273 1.824 
1064 648 -4.777926 1.676570 2.095 
1080 648 -5.066189 1.430240 1.237 
1096 648 -5.122088 0.811497 1.057 
1112 648 -4.541435 0.451889 1.190 
1128 648 -4.541597 0.301425 1.061 
1144 648 -4.782068 0.379641 1.149 
1160 648 -4.512204 -0.232517 1.015 
1176 648 -4.883001 -1.390411 1.285 
1192 648 -4.617639 -2.264120 1.428 
1208 648 -3.239986 -0.894811 1.141 
1224 648 -0.334400 -1.081123 1.448 
1240 648 -0.516685 -1.230846 1.763 
1256 648 -0.691755 -0.996560 1.608 
1272 648 -1.319310 0.232992 1.434 
8 632 -11.397009 5.273932 1.041 
24 632 -10.414379 7.890374 1.069 
40 632 -7.244620 10.913490 1.215 
56 632 -6.759066 10.441013 1.078 
72 632 -4.363993 11.884150 1.200 
88 632 -5.504442 3.665557 1.271 
104 632 -6.126645 2.458259 1.044 
120 632 -6.459319 1.250718 2.668 
136 632 -6.413827 2.346453 1.901 
152 632 -6.463132 2.403437 2.239 
168 632 -6.284833 2.082420 3.407 
184 632 -6.764720 1.585113 1.609 
200 632 -6.892693 1.446905 2.415 
216 632 -6.876269 1.508846 2.283 
232 632 -7.110339 1.524867 1.132 
248 632 -7.223540 1.085280 2.076 
264 632 -7.467870 1.141536 1.492 
280 632 -7.058123 1.374214 1.015 
296 632 -7.000445 1.165387 2.590 
312 632 -6.988377 1.115577 4.846 
328 632 -7.083313 0.843701 2.332 
344 632 -6.992862 0.446025 3.760 
360 632 -7.015100 0.381008 2.689 
376 632 -7.039864 0.695219 3.194 
392 632 -7.103649 0.820641 2.030 
408 632 -7.356799 0.502337 1.606 
424 632 -6.998546 0.590780 3.137 
440 632 -6.869449 1.044040 1.751 
456 632 -7.026630 0.850411 1.898 
472 632 -7.338752 0.382492 2.838 
488 632 -7.405549 -0.106615 1.632 
504 632 -7.238812 -0.277390 5.617 
520 632 -7.106697 -0.303941 3.327 
536 632 -6.964945 -0.205138 1.623 
552 632 -6.795986 -0.291247 1.703 
568 632 -6.782255 -0.522501 1.325 
584 632 -7.065249 -0.559791 2.047 
600 632 -6.936904 -0.528174 2.049 
616 632 -6.875134 -0.627281 3.021 
632 632 -6.974219 -0.417964 2.353 
648 632 -7.019707 -0.406995 2.420 
664 632 -6.824048 -0.339381 2.778 
680 632 -6.653766 -0.217042 2.403 
696 632 -6.409475 -0.266474 2.266 
712 632 -5.663384 -0.161445 3.241 
728 632 -5.471877 0.162592 2.105 
744 632 -5.252685 0.548621 1.010 
760 632 -4.887988 0.759336 1.211 
776 632 -4.559425 0.898306 2.566 
792 632 -4.350836 1.189223 2.463 
808 632 -4.335336 1.367325 1.923 
824 632 -4.165905 1.252705 3.267 
840 632 -4.380712 1.457947 6.439 
856 632 -4.681041 1.565320 2.405 
872 632 -3.821234 1.891006 3.425 
888 632 -3.423215 1.925048 4.050 
904 632 -3.590341 1.855556 1.958 
920 632 -4.049849 2.387693 2.597 
936 632 -3.935984 2.636676 1.945 
952 632 -4.008049 2.093125 2.519 
968 632 -4.073290 1.487844 2.877 
984 632 -4.325453 1.675589 2.926 
1000 632 -4.376408 1.882049 2.923 
1016 632 -3.897190 1.639704 3.582 
1032 632 -4.073617 1.500728 2.476 
1048 632 -4.415942 1.442661 2.055 
1064 632 -4.724472 1.262699 1.446 
1080 632 -4.924723 0.979048 4.176 