TITLE = "B00332"
VARIABLES = "x", "y", "u", "v", "sn"
ZONE T="Frame 0", I=80, J=50
8 792 0.000000 -0.000000 1.034 
24 792 0.000000 -0.000000 1.015 
40 792 0.000000 -0.000000 1.339 
56 792 13.712528 23.350215 1.218 
72 792 12.860241 20.481071 1.059 
88 792 4.479098 16.181868 1.012 
104 792 -3.200757 12.612424 1.409 
120 792 -2.975164 8.898391 1.144 
136 792 -2.749572 5.184358 1.256 
152 792 -2.523979 1.470325 1.043 
168 792 -3.784836 0.997500 3.447 
184 792 -5.045692 0.524675 3.208 
200 792 -4.913036 -0.112140 2.675 
216 792 -4.954070 -0.436745 2.899 
232 792 -4.520974 -0.228413 2.207 
248 792 -4.440833 -0.260192 2.112 
264 792 -4.538784 -0.486123 2.183 
280 792 -4.278193 -0.593481 2.178 
296 792 -4.271147 -0.395891 2.094 
312 792 -4.033124 -0.123462 2.136 
328 792 -3.656217 -0.042051 2.206 
344 792 -3.665409 0.115631 2.118 
360 792 -3.774783 0.147111 3.334 
376 792 -3.604008 0.094493 2.366 
392 792 -3.267380 0.116824 4.753 
408 792 -3.041743 0.109878 2.659 
424 792 -2.989966 0.077580 2.065 
440 792 -3.044854 0.234538 6.096 
456 792 -3.277388 0.407211 2.811 
472 792 -3.146201 0.602684 2.311 
488 792 -2.475431 1.015120 3.644 
504 792 -2.358537 1.066699 2.215 
520 792 -3.059396 1.141415 2.467 
536 792 -3.224809 0.759557 3.416 
552 792 -3.180556 0.424698 3.272 
568 792 -3.075127 0.178229 6.169 
584 792 -2.996731 0.098115 2.918 
600 792 -3.067222 0.267802 3.218 
616 792 -2.799547 0.315755 2.386 
632 792 -2.395469 0.292917 3.535 
648 792 -2.393413 0.302556 2.411 
664 792 -2.471297 0.208168 1.988 
680 792 -2.730271 0.098246 2.768 
696 792 -3.002856 0.029246 3.088 
712 792 -2.829841 0.126158 3.073 
728 792 -2.656827 0.223069 1.575 
744 792 -2.707968 -0.041193 1.730 
760 792 -2.110298 -0.151591 4.512 
776 792 -1.914609 -0.012265 7.150 
792 792 -3.184619 0.281975 6.202 
808 792 -2.780176 0.366414 3.307 
824 792 -2.375732 0.450853 4.677 
840 792 -1.957731 0.515673 2.226 
856 792 -2.132820 0.503606 3.588 
872 792 -1.985342 0.310341 1.450 
888 792 -2.053860 0.557128 2.034 
904 792 -2.210348 0.970629 2.663 
920 792 -2.250822 0.880215 3.487 
936 792 -1.979431 0.696067 2.867 
952 792 -1.740375 0.695906 1.908 
968 792 -1.701393 0.606318 1.515 
984 792 -1.689291 0.734249 1.872 
1000 792 -1.580808 0.606111 1.994 
1016 792 -1.227557 0.588503 2.099 
1032 792 -1.318946 0.792129 2.319 
1048 792 -2.096238 1.393769 1.479 
1064 792 -1.690740 1.051028 2.483 
1080 792 -0.789918 0.613499 3.237 
1096 792 -1.021235 -0.127775 3.018 
1112 792 -1.252551 -0.869048 2.415 
1128 792 -1.483868 -1.610321 1.056 
1144 792 0.372815 -3.349790 1.016 
1160 792 2.229499 -5.089258 1.147 
1176 792 13.423752 5.713934 1.051 
1192 792 13.858179 5.196508 1.395 
1208 792 11.591791 -0.462230 1.222 
1224 792 9.325402 -6.120968 1.209 
1240 792 7.059014 -11.779706 1.840 
1256 792 4.067977 -6.677926 1.608 
1272 792 0.000000 -0.000000 1.375 
8 776 2.796820 17.082399 1.023 
24 776 6.772660 20.286911 1.020 
40 776 10.472697 23.619305 1.391 
56 776 16.998591 23.692055 1.238 
72 776 16.847563 20.495814 1.059 
88 776 7.405528 15.799639 1.053 
104 776 -1.336057 10.674449 1.307 
120 776 -1.304042 5.758202 1.151 
136 776 -1.272028 0.841954 1.273 
152 776 -2.979351 0.094118 1.071 
168 776 -4.797425 0.252175 3.387 
184 776 -5.069211 -0.112293 3.183 
200 776 -4.841987 -0.488788 2.694 
216 776 -4.840078 -0.611113 2.488 
232 776 -4.360211 -0.325664 2.256 
248 776 -4.316612 -0.316583 1.988 
264 776 -4.411706 -0.469799 2.127 
280 776 -4.201248 -0.522774 2.189 
296 776 -4.232242 -0.359831 2.094 
312 776 -4.037465 -0.145446 2.037 
328 776 -3.709613 -0.105954 2.083 
344 776 -3.698464 0.011537 2.149 
360 776 -3.815001 0.029817 3.244 
376 776 -3.659733 -0.004984 2.424 
392 776 -3.378086 0.017245 4.722 
408 776 -3.155429 0.014889 2.756 
424 776 -3.114993 -0.007480 2.106 
440 776 -3.104369 0.148504 5.695 
456 776 -3.282911 0.286937 2.892 
472 776 -3.184527 0.433098 2.349 
488 776 -2.552319 0.797249 3.950 
504 776 -2.424889 0.829689 2.173 
520 776 -3.079297 0.967615 2.649 
536 776 -3.227610 0.616466 3.556 
552 776 -3.175590 0.275724 3.507 
568 776 -3.077994 0.051162 5.865 
584 776 -3.020762 -0.059921 2.993 
600 776 -3.072842 0.076226 3.324 
616 776 -2.829550 0.153000 2.431 
632 776 -2.473370 0.189528 3.529 
648 776 -2.503934 0.222346 2.462 
664 776 -2.579829 0.157025 1.982 
680 776 -2.820781 0.068457 2.707 
696 776 -3.050859 -0.018959 2.896 
712 776 -2.953167 0.116153 2.798 
728 776 -2.707638 0.207520 1.591 
744 776 -2.732178 -0.029986 1.728 
760 776 -2.151696 -0.131433 4.635 
776 776 -2.017049 -0.037388 7.248 
792 776 -3.130709 0.194162 5.589 
808 776 -3.292685 0.314075 3.061 
824 776 -2.356767 0.358571 4.683 
840 776 -2.022714 0.426746 2.223 
856 776 -2.161036 0.415132 4.375 
872 776 -2.024231 0.224452 1.478 
888 776 -2.095086 0.436377 2.022 
904 776 -2.208333 0.810269 2.622 
920 776 -2.259419 0.739235 3.703 
936 776 -2.009042 0.591047 2.869 
952 776 -1.822481 0.578680 1.866 
968 776 -1.812553 0.502484 1.510 
984 776 -1.845019 0.663307 1.887 
1000 776 -1.792019 0.589631 1.876 
1016 776 -1.496039 0.618801 2.153 
1032 776 -1.590188 0.843518 2.436 
1048 776 -2.031605 1.152973 1.587 
1064 776 -1.874054 1.070528 2.489 
1080 776 -1.032875 0.740526 3.319 
1096 776 -1.065710 0.515287 2.942 
1112 776 -1.444930 0.243543 2.389 
1128 776 -1.320688 -0.797004 1.045 
1144 776 -0.388075 -1.569079 1.042 
1160 776 2.963045 -2.929301 1.116 
1176 776 14.379815 2.323734 1.056 
1192 776 15.926469 1.492305 1.418 
1208 776 17.473122 0.660875 1.245 
1224 776 11.937208 -5.226490 1.096 
1240 776 6.401293 -11.113855 1.759 
1256 776 2.093454 -7.656674 1.499 
1272 776 -1.733171 -3.320451 1.379 
8 760 8.749085 24.112405 1.006 
24 760 11.030786 28.668911 1.043 
40 760 13.151252 26.876356 1.312 
56 760 20.284653 24.033895 1.155 
72 760 17.682944 14.741831 1.136 
88 760 6.183019 5.042240 2.409 
104 760 4.109516 0.972202 1.071 
120 760 1.432604 0.806869 1.423 
136 760 -1.244307 0.641535 2.667 
152 760 -4.365149 1.178041 2.856 
168 760 -5.007752 -0.280707 2.583 
184 760 -4.991727 -0.528643 3.237 
200 760 -4.714491 -0.766048 3.255 
216 760 -4.687051 -0.535233 1.018 
232 760 -4.087083 -0.241890 2.558 
248 760 -4.054594 -0.272993 1.999 
264 760 -4.147230 -0.265941 2.233 
280 760 -4.275069 -0.226953 3.458 
296 760 -4.184634 -0.092384 7.967 
312 760 -4.176074 -0.111151 4.225 
328 760 -3.989784 -0.125296 2.966 
344 760 -3.706183 -0.059579 2.370 
360 760 -3.853298 -0.102367 4.025 
376 760 -3.759975 -0.193859 2.870 
392 760 -3.501250 -0.107958 3.241 
408 760 -3.361197 -0.139646 1.785 
424 760 -3.310218 -0.161259 2.212 
440 760 -3.284473 -0.058275 5.474 
456 760 -3.345392 0.106826 1.697 
472 760 -3.152011 0.193990 1.907 
488 760 -2.624390 0.282931 2.861 
504 760 -2.640438 0.499294 3.206 
520 760 -2.987348 0.347317 1.845 
536 760 -3.174228 0.226493 8.596 
552 760 -3.147158 0.184506 4.888 
568 760 -3.102229 -0.229744 3.641 
584 760 -3.079041 -0.541880 3.164 
600 760 -2.976570 -0.389099 2.572 
616 760 -2.724849 -0.178165 2.587 
632 760 -2.575150 -0.134702 4.312 
648 760 -2.615861 -0.062403 3.566 
664 760 -2.965844 0.168643 1.139 
680 760 -2.857390 -0.065739 1.043 
696 760 -3.009925 -0.149920 1.887 
712 760 -2.782411 0.025286 1.320 
728 760 -2.801360 0.123126 1.322 
744 760 -2.675602 -0.086269 1.312 
760 760 -2.307834 -0.095916 2.098 
776 760 -2.297023 -0.103946 1.585 
792 760 -2.636326 -0.035991 1.725 
808 760 -2.832025 0.120017 1.610 
824 760 -2.060600 0.099465 2.515 
840 760 -2.072540 0.314154 2.108 
856 760 -2.319708 0.387905 1.361 
872 760 -2.217958 0.189424 1.373 
888 760 -2.100421 0.154250 2.299 
904 760 -2.323348 0.542067 2.115 
920 760 -2.334377 0.482276 3.772 
936 760 -2.039667 0.351420 2.265 
952 760 -1.872561 0.358590 1.588 
968 760 -1.811855 0.235909 1.144 
984 760 -1.930343 0.271129 3.269 
1000 760 -1.817643 0.554369 2.044 
1016 760 -1.880006 0.524803 1.754 
1032 760 -1.997455 0.686081 1.752 
1048 760 -1.966972 0.912177 3.786 
1064 760 -1.448801 0.867216 2.334 
1080 760 -1.094781 0.584478 3.117 
1096 760 -1.100922 0.471403 1.521 
1112 760 -1.411900 0.395809 1.494 
1128 760 -1.157508 0.016312 1.215 
1144 760 1.820523 -0.537124 1.199 
1160 760 7.284969 -1.260431 1.307 
1176 760 11.103806 1.671430 1.037 
1192 760 15.294683 1.149367 1.436 
1208 760 17.544327 -0.134327 1.353 
1224 760 13.188258 -4.282988 1.076 
1240 760 1.728740 -3.974800 1.130 
1256 760 1.493984 -4.697177 1.295 
1272 760 -5.552781 -1.493903 1.254 
8 744 13.329136 27.041728 1.071 
24 744 16.425473 27.280083 1.067 
40 744 19.521810 27.518438 1.083 
56 744 21.351086 19.487026 1.040 
72 744 9.883488 7.477599 1.017 
88 744 4.447545 2.929173 1.704 
104 744 3.354911 0.026873 1.143 
120 744 0.443583 0.343438 1.114 
136 744 -1.305451 0.537774 3.244 
152 744 -4.196137 0.107062 2.444 
168 744 -5.258727 -0.433155 1.576 
184 744 -5.105429 -0.683326 1.861 
200 744 -5.148988 -0.575290 1.065 
216 744 -4.610197 -0.404712 1.694 
232 744 -4.183766 -0.199313 2.470 
248 744 -4.230246 -0.409220 2.417 
264 744 -4.196618 -0.386434 2.503 
280 744 -4.132189 -0.064450 4.958 
296 744 -4.119457 0.058222 7.515 
312 744 -4.189472 -0.059352 3.521 
328 744 -4.036210 -0.165220 2.847 
344 744 -3.704272 -0.359900 2.516 
360 744 -3.459412 -0.318791 1.967 
376 744 -3.578197 -0.330221 3.535 
392 744 -3.468141 -0.171983 4.673 
408 744 -3.485956 -0.176930 2.812 
424 744 -3.430789 -0.214428 2.792 
440 744 -3.303441 -0.267287 2.843 
456 744 -3.122894 -0.281586 2.137 
472 744 -3.145623 -0.333147 2.488 
488 744 -2.842478 -0.148553 2.126 
504 744 -2.641717 0.096750 2.670 
520 744 -2.937805 -0.009161 3.426 
536 744 -3.162874 -0.213851 4.002 
552 744 -3.005456 -0.206379 1.637 
568 744 -3.071878 -0.394504 2.908 
584 744 -2.951648 -0.708461 4.029 
600 744 -2.845459 -0.815459 2.738 
616 744 -2.599123 -0.558747 1.889 
632 744 -2.531271 -0.449744 2.588 
648 744 -2.672636 -0.332851 2.199 
664 744 -2.885812 -0.166748 1.928 
680 744 -2.894000 -0.199935 1.448 
696 744 -2.968990 -0.280881 1.987 
712 744 -2.611656 -0.065581 1.675 
728 744 -2.620626 -0.027342 1.015 
744 744 -2.401314 -0.048076 2.618 
760 744 -2.509901 -0.006313 2.544 
776 744 -2.483790 -0.047247 2.908 
792 744 -2.649159 -0.092266 2.683 
808 744 -2.669791 -0.077702 2.766 
824 744 -2.179917 0.087172 3.611 
840 744 -2.217693 0.099711 1.986 
856 744 -2.393363 0.053180 1.258 
872 744 -2.371099 -0.017315 1.722 
888 744 -2.192540 -0.062051 2.233 
904 744 -2.273860 0.026969 3.897 
920 744 -2.226306 0.041337 3.469 
936 744 -2.192213 -0.019573 4.827 
952 744 -2.003979 -0.070919 2.051 
968 744 -1.967951 -0.109363 2.009 
984 744 -2.000646 -0.005468 2.127 
1000 744 -1.775283 0.087788 3.244 
1016 744 -1.759773 0.068980 4.046 
1032 744 -1.744998 0.099677 3.821 
1048 744 -1.557262 0.070732 3.492 
1064 744 -1.160595 0.101167 2.348 
1080 744 -0.977672 0.292689 2.136 
1096 744 -0.745982 0.245066 3.470 
1112 744 -0.586471 0.190657 1.047 
1128 744 -0.616319 -0.028273 1.120 
1144 744 0.600146 0.007423 1.793 
1160 744 4.135021 0.524171 2.834 
1176 744 7.827797 1.019126 1.329 
1192 744 14.662896 0.806430 1.172 
1208 744 17.615531 -0.929530 1.478 
1224 744 8.155096 0.754685 1.071 
1240 744 4.203172 0.130496 1.087 
1256 744 0.251248 -0.493693 1.054 
1272 744 -9.372390 0.332646 1.100 
8 728 21.093861 30.355370 1.364 
24 728 22.186083 28.361813 1.355 
40 728 23.278305 26.368255 1.175 
56 728 12.428652 12.554882 1.019 
72 728 1.392066 0.253962 1.686 
88 728 2.812584 1.445708 1.044 
104 728 1.977814 0.530501 1.274 
120 728 0.727004 0.416793 1.067 
136 728 -1.366595 0.434012 1.585 
152 728 -4.167274 -0.392771 1.510 
168 728 -5.279813 -0.882322 2.049 
184 728 -5.268256 -0.969898 1.484 
200 728 -4.905175 -0.770862 1.592 
216 728 -4.961133 -0.486898 1.873 
232 728 -4.571431 -0.380792 2.331 
248 728 -4.618305 -0.488019 2.496 
264 728 -4.611191 -0.453084 3.220 
280 728 -4.378792 -0.118386 2.229 
296 728 -4.250396 0.067309 4.083 
312 728 -4.191965 -0.021835 2.625 
328 728 -3.924427 -0.118086 2.899 
344 728 -3.424650 -0.138922 1.500 
360 728 -3.262881 -0.261938 1.494 
376 728 -3.314001 -0.241712 1.631 
392 728 -3.219306 -0.194595 2.370 
408 728 -3.275663 -0.001652 2.111 
424 728 -3.327676 -0.139298 1.899 
440 728 -3.188797 -0.406267 8.018 
456 728 -2.904546 -0.508385 2.680 
472 728 -3.047789 -0.582887 1.791 
488 728 -3.126666 -0.481254 2.027 
504 728 -3.047870 -0.280557 2.785 
520 728 -3.117077 -0.158111 3.434 
536 728 -3.117463 -0.343289 3.142 
552 728 -2.899115 -0.449691 3.885 
568 728 -2.967212 -0.337953 1.935 
584 728 -2.806544 -0.415726 2.750 
600 728 -2.709761 -0.472134 2.873 
616 728 -2.636805 -0.565025 1.332 
632 728 -2.563227 -0.555595 1.508 
648 728 -2.787347 -0.618681 2.508 
664 728 -2.881950 -0.468184 1.077 
680 728 -2.930610 -0.334131 1.349 
696 728 -2.928056 -0.411842 2.662 
712 728 -2.440900 -0.156448 2.077 
728 728 -2.508364 -0.207117 1.837 
744 728 -2.649744 -0.251442 1.393 
760 728 -2.722543 0.057664 2.165 
776 728 -2.666995 -0.055439 1.129 
792 728 -2.672576 -0.148569 2.498 
808 728 -2.565610 -0.208994 3.125 
824 728 -2.422607 -0.016245 2.360 
840 728 -2.574691 -0.216948 2.462 
856 728 -2.716558 -0.346128 2.361 
872 728 -2.390425 -0.419589 2.162 
888 728 -2.181662 -0.410252 1.541 
904 728 -2.213772 -0.404559 2.908 
920 728 -2.313285 -0.443068 3.729 
936 728 -2.327466 -0.449043 2.953 
952 728 -2.156182 -0.436925 2.067 
968 728 -2.166679 -0.388377 1.923 
984 728 -2.108322 -0.220364 2.150 
1000 728 -1.881597 -0.103503 3.427 
1016 728 -1.707568 -0.165399 3.054 
1032 728 -1.672027 -0.137070 3.636 
1048 728 -1.574539 -0.170134 2.235 
1064 728 -1.379825 -0.270496 1.892 
1080 728 -1.050450 -0.075162 2.278 
1096 728 -0.527422 0.019153 2.747 
1112 728 -0.502188 -0.134622 3.780 
1128 728 -0.636961 -0.355931 2.309 
1144 728 -0.179130 -0.187775 2.085 
1160 728 1.687650 0.223755 5.276 
1176 728 3.413680 0.513976 1.767 
1192 728 7.001129 1.386276 1.034 
1208 728 8.114587 1.800072 1.292 
1224 728 2.486514 1.298233 1.044 
1240 728 0.476449 2.487313 1.198 
1256 728 -0.886884 3.915820 1.142 
1272 728 -13.192000 2.159195 1.001 
8 712 21.183260 27.207815 1.299 
24 712 24.497935 26.663676 1.225 
40 712 21.210107 22.988198 1.067 
56 712 12.668840 10.206429 1.140 
72 712 0.590936 -2.798535 1.220 
88 712 1.471846 -1.045063 1.159 
104 712 2.352755 0.708410 1.409 
120 712 0.010772 -0.236475 1.289 
136 712 -1.969520 -0.065485 1.064 
152 712 -4.135727 -0.640194 2.232 
168 712 -4.935804 -0.851465 2.278 
184 712 -4.861876 -0.970661 1.706 
200 712 -4.504269 -0.971175 1.583 
216 712 -4.754299 -0.542392 3.050 
232 712 -5.328707 -0.689948 1.812 
248 712 -5.079483 -0.759155 2.348 
264 712 -5.017203 -0.453239 2.444 
280 712 -4.627639 -0.250566 3.134 
296 712 -4.332001 0.140676 1.036 
312 712 -4.082899 0.451131 1.346 
328 712 -3.755924 0.147024 2.782 
344 712 -3.316922 -0.039078 1.522 
360 712 -3.118614 -0.188183 1.829 
376 712 -3.257295 -0.246959 1.797 
392 712 -3.358067 -0.298211 2.415 
408 712 -3.281212 -0.082914 1.654 
424 712 -3.211183 -0.064102 3.868 
440 712 -3.040054 -0.296206 3.374 
456 712 -2.900001 -0.555381 3.383 
472 712 -2.968153 -0.584320 3.250 
488 712 -3.469147 -0.571187 1.627 
504 712 -3.364866 -0.420024 1.601 
520 712 -3.255451 -0.170462 2.489 
536 712 -2.990609 0.012908 2.754 
552 712 -2.868578 0.018974 2.730 
568 712 -2.828654 -0.107979 2.942 
584 712 -2.998623 -0.359724 3.801 
600 712 -2.901210 -0.442106 3.243 
616 712 -2.975748 -0.623741 1.424 
632 712 -2.711596 -0.527677 2.005 
648 712 -2.652704 -0.518915 2.704 
664 712 -2.794324 -0.588035 1.229 
680 712 -2.880823 -0.508746 1.456 
696 712 -2.978525 -0.361580 2.471 
712 712 -2.822800 -0.264748 1.896 
728 712 -2.623502 -0.276155 2.231 
744 712 -2.697418 -0.321542 1.381 
760 712 -2.778027 -0.323904 1.174 
776 712 -2.652946 -0.183901 2.187 
792 712 -2.556598 -0.312460 1.816 
808 712 -2.488772 -0.117595 1.481 
824 712 -2.588773 -0.118643 1.870 
840 712 -2.695514 -0.329501 4.217 
856 712 -2.846949 -0.399908 5.678 
872 712 -2.517729 -0.496948 1.796 
888 712 -2.233424 -0.490051 2.029 
904 712 -2.258817 -0.490598 3.089 
920 712 -2.371615 -0.561510 3.510 
936 712 -2.355824 -0.495462 3.755 
952 712 -2.143341 -0.435497 2.300 
968 712 -2.057523 -0.486070 3.014 
984 712 -2.012133 -0.384489 2.650 
1000 712 -1.765769 -0.352531 2.242 
1016 712 -1.161694 -0.286328 2.271 
1032 712 -1.299111 -0.146322 2.739 
1048 712 -1.298792 -0.360842 2.825 
1064 712 -1.218308 -0.439329 3.142 
1080 712 -0.910462 -0.376380 4.059 
1096 712 -0.621706 -0.185935 8.725 
1112 712 -0.625179 -0.312868 6.643 
1128 712 -0.795560 -0.612631 4.140 
1144 712 -0.682217 -0.617958 4.551 
1160 712 0.351644 -0.464083 3.720 
1176 712 1.052445 -0.519687 1.279 
1192 712 1.160176 1.248072 1.056 
1208 712 4.188640 0.560091 1.036 
1224 712 -3.182069 1.841782 1.056 
1240 712 -5.838865 2.791433 1.350 
1256 712 -8.401709 4.539895 1.089 
1272 712 -17.011609 3.985743 1.425 
8 696 21.272660 24.060260 1.135 
24 696 18.064089 21.311065 1.159 
40 696 16.726411 18.031740 1.117 
56 696 11.821402 9.822598 2.175 
72 696 4.170474 -1.867336 1.461 
88 696 0.825296 -1.766868 1.103 
104 696 -2.519881 -1.666399 1.110 
120 696 -0.705460 -0.889742 1.142 
136 696 -2.546431 -0.873696 1.213 
152 696 -4.387402 -0.857650 1.821 
168 696 -4.591794 -0.820608 1.322 
184 696 -4.455495 -0.971425 1.302 
200 696 -4.272021 -0.905589 1.127 
216 696 -4.998621 -0.808965 1.638 
232 696 -5.723204 -0.992180 1.554 
248 696 -5.540661 -1.030291 2.287 
264 696 -4.827217 -0.270307 2.173 
280 696 -4.365555 0.020525 3.662 
296 696 -4.288352 0.247010 2.648 
312 696 -3.873214 0.278936 1.456 
328 696 -3.663193 0.262208 2.180 
344 696 -3.151001 -0.392078 2.591 
360 696 -3.298969 -0.330978 2.541 
376 696 -3.428324 -0.230980 2.102 
392 696 -3.152851 -0.392495 2.795 
408 696 -3.079716 -0.227041 2.379 
424 696 -3.035143 -0.207277 2.678 
440 696 -3.106780 -0.418891 3.318 
456 696 -3.172811 -0.423273 3.907 
472 696 -3.210892 -0.249591 3.688 
488 696 -3.321663 -0.337491 2.517 
504 696 -3.324496 -0.503384 1.977 
520 696 -3.135300 -0.264494 3.016 
536 696 -2.815233 0.084521 1.926 
552 696 -2.858220 0.090574 2.177 
568 696 -3.003659 -0.065937 2.386 
584 696 -3.163186 -0.346100 2.642 
600 696 -3.117545 -0.574127 2.889 
616 696 -3.099366 -0.737268 1.563 
632 696 -2.447838 -0.455767 2.907 
648 696 -2.268143 -0.294739 2.654 
664 696 -2.467282 -0.331295 2.265 
680 696 -2.777980 -0.415278 2.168 
696 696 -2.915076 -0.357997 2.212 
712 696 -2.835196 -0.317967 2.237 
728 696 -2.657306 -0.302627 2.448 
744 696 -2.634304 -0.306125 2.422 
760 696 -2.587870 -0.408825 2.172 
776 696 -2.413918 -0.426384 4.460 
792 696 -2.438699 -0.571030 2.282 
808 696 -2.599566 -0.284632 2.204 
824 696 -2.627677 -0.268797 1.176 
840 696 -2.676399 -0.337849 2.242 
856 696 -2.841104 -0.397381 5.199 
872 696 -2.580963 -0.524079 3.593 
888 696 -2.222817 -0.564673 3.541 
904 696 -2.273046 -0.502800 2.067 
920 696 -2.214909 -0.748222 2.833 
936 696 -2.217025 -0.600424 2.599 
952 696 -1.961332 -0.479986 2.160 
968 696 -1.717936 -0.583605 2.121 
984 696 -1.847295 -0.636206 2.742 
1000 696 -1.476814 -0.606962 1.577 
1016 696 -1.103929 -0.496346 1.709 
1032 696 -0.982016 -0.408226 2.296 
1048 696 -1.078882 -0.669187 4.107 
1064 696 -1.026007 -0.751563 2.919 
1080 696 -0.750866 -0.681771 2.554 
1096 696 -0.585219 -0.555011 4.109 
1112 696 -0.641871 -0.563595 4.554 
1128 696 -0.901809 -0.702744 4.202 
1144 696 -0.920783 -0.684395 2.546 
1160 696 0.047209 -0.617676 5.245 
1176 696 0.186019 -0.558626 1.519 
1192 696 0.549261 0.240899 1.950 
1208 696 0.262694 -0.679891 1.021 
1224 696 -3.159391 1.195413 1.085 
1240 696 -8.390335 2.593532 1.267 
1256 696 -13.544210 4.150666 1.188 
1272 696 -16.092978 1.716571 1.103 
8 680 12.630946 22.592743 1.074 
24 680 9.750548 16.752045 1.058 
40 680 12.242714 13.075281 1.502 
56 680 10.532301 4.587830 1.047 
72 680 2.615719 -4.557579 1.051 
88 680 -1.266870 -5.238923 2.034 
104 680 -5.149459 -5.920267 1.175 
120 680 -4.070082 -2.207772 1.223 
136 680 -4.119444 -1.547265 1.536 
152 680 -4.168807 -0.886759 1.622 
168 680 -4.050538 -0.477564 1.284 
184 680 -3.910755 -0.647041 1.038 
200 680 -3.938486 -0.858726 1.190 
216 680 -4.330320 -0.980829 1.533 
232 680 -5.222543 -0.805235 1.158 
248 680 -4.654965 -0.686550 1.421 
264 680 -4.161448 -0.009728 3.055 
280 680 -4.049464 0.123736 4.902 
296 680 -4.076327 0.334420 3.067 
312 680 -3.797059 0.636439 1.339 
328 680 -3.547101 0.407099 1.850 
344 680 -3.037227 -0.264723 3.643 
360 680 -3.095913 -0.346290 1.992 
376 680 -3.267735 -0.332213 2.405 
392 680 -3.174658 -0.508369 2.060 
408 680 -2.936422 -0.395470 1.278 
424 680 -2.798855 -0.285504 2.116 
440 680 -2.922096 -0.098113 2.046 
456 680 -3.067464 -0.198275 2.422 
472 680 -3.080818 -0.203492 1.544 
488 680 -3.033356 -0.118722 1.802 
504 680 -3.273698 -0.866596 1.419 
520 680 -3.051598 -0.545748 1.493 
536 680 -2.775817 0.050616 1.355 
552 680 -2.880719 0.226570 1.156 
568 680 -3.111468 -0.074503 1.156 
584 680 -3.219427 -0.263183 2.126 
600 680 -3.118122 -0.474757 2.736 
616 680 -2.914521 -0.626339 3.321 
632 680 -2.569357 -0.519632 1.701 
648 680 -2.343110 -0.298795 2.009 
664 680 -2.393161 -0.346822 4.850 
680 680 -2.639600 -0.479426 1.729 
696 680 -2.761892 -0.428880 2.396 
712 680 -2.675677 -0.435350 2.715 
728 680 -2.503840 -0.357952 2.189 
744 680 -2.579152 -0.415034 2.594 
760 680 -2.523913 -0.483913 2.808 
776 680 -2.334174 -0.506391 1.932 
792 680 -2.259357 -0.716996 2.143 
808 680 -2.470142 -0.759953 3.547 
824 680 -2.560782 -0.611880 2.143 
840 680 -2.725750 -0.652555 2.145 
856 680 -2.745917 -0.687461 2.445 
872 680 -2.328049 -0.787689 2.056 
888 680 -1.780967 -0.798641 4.023 
904 680 -1.572725 -0.901770 3.615 
920 680 -1.854058 -0.948792 3.414 
936 680 -2.087417 -0.644476 3.415 
952 680 -2.063571 -0.486747 2.776 
968 680 -1.840836 -0.696079 2.941 
984 680 -1.866325 -0.878708 2.158 
1000 680 -2.112108 -0.763590 1.653 
1016 680 -1.860743 -0.726643 1.604 
1032 680 -1.194414 -0.726405 3.640 
1048 680 -1.107616 -0.996177 2.439 
1064 680 -0.941383 -1.083987 4.192 
1080 680 -0.704406 -1.023764 1.134 
1096 680 -0.776755 -1.036594 1.443 
1112 680 -0.927506 -0.943116 1.539 
1128 680 -0.921551 -0.833250 3.011 
1144 680 -0.869203 -0.660856 1.669 
1160 680 -0.488030 -0.504283 1.608 
1176 680 -0.125058 -0.593632 2.177 
1192 680 -0.061654 -0.766275 2.204 
1208 680 -0.245084 -0.810227 1.111 
1224 680 -3.329172 -0.589485 1.144 
1240 680 -7.232627 -0.546456 1.382 
1256 680 -11.912575 -0.514942 1.058 
1272 680 -15.174347 -0.552601 1.174 
8 664 18.721872 17.691013 1.056 
24 664 10.432169 7.481703 1.020 
40 664 8.935454 4.358703 1.198 
56 664 8.415061 -5.093909 1.230 
72 664 3.093851 -6.218184 1.261 
88 664 -5.194300 -7.590567 1.418 
104 664 -5.462528 -4.252050 1.058 
120 664 -4.561702 -1.823417 1.947 
136 664 -4.090446 -1.054284 1.827 
152 664 -4.032747 -0.531394 1.763 
168 664 -3.810382 -0.402877 1.310 
184 664 -3.881353 -0.770096 1.007 
200 664 -3.942916 -1.154772 1.431 
216 664 -3.847944 -1.212219 1.718 
232 664 -4.511701 -0.654081 1.119 
248 664 -4.493383 0.009863 2.059 
264 664 -3.540535 0.146646 2.940 
280 664 -3.561480 0.142406 3.147 
296 664 -3.620136 0.502835 3.022 
312 664 -3.766914 1.211558 1.744 
328 664 -3.390194 0.938253 2.337 
344 664 -3.155630 0.472141 2.297 
360 664 -3.254326 -0.144709 1.551 
376 664 -3.672167 -0.300952 2.927 
392 664 -3.391666 -0.550347 2.321 
408 664 -3.191425 -0.505451 1.642 
424 664 -3.262650 -0.235539 2.265 
440 664 -3.030057 -0.169854 3.876 
456 664 -3.045618 -0.218201 2.620 
472 664 -3.029750 -0.309889 2.475 
488 664 -2.767590 -0.584943 1.699 
504 664 -3.011056 -0.887670 2.475 
520 664 -2.730659 -0.608831 1.631 
536 664 -2.657210 -0.077794 1.420 
552 664 -2.908043 -0.153826 1.077 
568 664 -3.116404 -0.294431 1.090 
584 664 -3.157562 -0.293541 1.279 
600 664 -3.068399 -0.412283 1.927 
616 664 -2.697702 -0.505478 2.516 
632 664 -2.859798 -0.457399 2.618 
648 664 -2.739413 -0.312773 1.900 
664 664 -2.664977 -0.328835 4.843 
680 664 -2.535716 -0.369072 1.678 
696 664 -2.691176 -0.306227 2.652 
712 664 -2.691856 -0.419133 4.031 
728 664 -2.598321 -0.440478 4.689 
744 664 -2.647622 -0.420336 5.225 
760 664 -2.461635 -0.638637 4.096 
776 664 -2.284339 -0.816051 4.149 
792 664 -2.330049 -0.830574 2.167 
808 664 -2.402556 -0.944668 1.888 
824 664 -2.561953 -0.901526 2.711 
840 664 -2.553034 -0.811337 1.616 
856 664 -2.440032 -0.826436 1.797 
872 664 -2.256724 -0.917419 3.902 
888 664 -1.913540 -0.874596 2.128 
904 664 -1.696664 -1.042586 2.127 
920 664 -1.830274 -1.009415 1.348 
936 664 -2.088081 -0.838548 2.619 
952 664 -2.236123 -0.530676 3.663 
968 664 -1.857872 -0.747260 3.366 
984 664 -2.003182 -0.891341 2.531 
1000 664 -2.201880 -1.005823 1.370 
1016 664 -2.158915 -0.999468 1.462 
1032 664 -1.565164 -1.195528 1.853 
1048 664 -1.395701 -1.413249 1.297 
1064 664 -1.064482 -1.368580 2.282 
1080 664 -0.634308 -1.153313 3.056 
1096 664 -0.668308 -1.212797 1.903 
1112 664 -0.866817 -1.046164 1.909 
1128 664 -0.949486 -0.806612 4.020 
1144 664 -0.959363 -0.783595 2.145 
1160 664 -0.823600 -0.685376 3.536 
1176 664 -0.741456 -0.458283 3.197 
1192 664 -0.621598 -0.482556 1.698 
1208 664 -0.577814 -0.041863 1.242 
1224 664 -0.104750 -0.594190 1.216 
1240 664 -3.692889 -0.451477 1.050 
1256 664 -6.135521 -0.654198 1.332 
1272 664 -8.798929 -0.497778 1.495 
8 648 24.812797 12.789284 1.333 
24 648 11.113790 -1.788639 1.355 
40 648 8.075034 -4.986869 1.281 
56 648 5.866684 -3.636157 1.278 
72 648 3.571982 -7.878788 1.241 
88 648 -4.336636 -3.711061 1.165 
104 648 -4.327179 -1.952734 1.449 
120 648 -4.317723 -0.194407 2.052 
136 648 -3.840977 -0.210003 1.729 
152 648 -3.922394 -0.280286 2.725 
168 648 -3.729364 -0.457436 3.460 
184 648 -3.851952 -0.893151 1.860 
200 648 -3.947345 -1.450819 2.720 
216 648 -4.048483 -1.193519 3.592 
232 648 -4.043865 -0.708582 3.088 
248 648 -3.559076 -0.302579 1.113 
264 648 -2.950200 0.055081 2.171 
280 648 -3.079629 0.309762 1.704 
296 648 -3.448185 0.888607 1.530 
312 648 -3.474151 1.490702 1.702 
328 648 -3.426004 1.381947 1.006 
344 648 -3.410771 0.988008 1.054 
360 648 -3.512470 0.820172 1.007 
376 648 -3.494307 0.402656 1.181 
392 648 -3.602737 -0.599324 2.403 
408 648 -3.616816 -0.814869 2.668 
424 648 -3.615267 -0.617278 1.402 
440 648 -3.308343 -0.404952 2.138 
456 648 -3.077366 -0.316405 1.036 
472 648 -3.023191 -0.445371 2.536 
488 648 -2.963651 -0.801061 2.587 
504 648 -2.669879 -0.780523 3.026 
520 648 -2.799129 -0.705078 2.876 
536 648 -2.988438 -0.130155 1.704 
552 648 -3.015812 -0.132357 2.439 
568 648 -3.088621 -0.203500 1.089 
584 648 -3.162011 -0.246409 1.019 
600 648 -3.137742 -0.392994 1.441 
616 648 -2.952356 -0.519082 2.242 
632 648 -3.034747 -0.476741 1.135 
648 648 -2.879800 -0.393637 3.254 
664 648 -2.694566 -0.484036 3.785 
680 648 -2.546044 -0.521637 2.041 
696 648 -2.700607 -0.306342 2.767 
712 648 -2.695558 -0.543552 4.999 
728 648 -2.628074 -0.584522 3.168 
744 648 -2.639291 -0.362954 2.630 
760 648 -2.418811 -0.571439 4.852 
776 648 -2.355071 -0.791401 2.556 
792 648 -2.429315 -0.629497 2.293 
808 648 -2.344629 -0.720450 2.837 
824 648 -2.349050 -0.832515 2.807 
840 648 -2.357269 -0.844709 1.807 
856 648 -2.370649 -0.817748 1.346 
872 648 -2.498369 -0.772499 1.630 
888 648 -2.719282 -0.746173 1.373 
904 648 -2.031730 -0.947348 2.460 
920 648 -1.997298 -1.158167 1.535 
936 648 -2.087673 -1.006104 2.767 
952 648 -2.049422 -0.790168 1.876 
968 648 -1.874909 -0.798441 1.970 
984 648 -1.811331 -1.093740 2.899 
1000 648 -2.104605 -1.174256 2.145 
1016 648 -1.517955 -1.227412 2.946 
1032 648 -1.177305 -1.407558 2.367 
1048 648 -1.258116 -1.591286 1.230 
1064 648 -1.055862 -1.510710 3.117 
1080 648 -0.712269 -1.204957 2.364 
1096 648 -0.525602 -0.945188 2.132 
1112 648 -0.769221 -0.766910 2.119 
1128 648 -0.889444 -0.684590 3.832 
1144 648 -1.140986 -0.762262 4.556 
1160 648 -1.213193 -0.523612 3.416 
1176 648 -1.459469 -0.317753 2.583 
1192 648 -1.320357 -0.284140 2.270 
1208 648 -0.796833 0.037985 1.404 
1224 648 -0.760115 0.191956 1.186 
1240 648 -0.153151 -0.356499 1.346 
1256 648 -0.358467 -0.793455 1.820 
1272 648 -2.423511 -0.442956 1.727 
8 632 22.380431 3.766677 1.492 
24 632 16.060740 -6.539835 1.505 
40 632 6.220443 -11.571065 1.022 
56 632 3.218436 -7.954623 1.180 
72 632 0.470838 -2.798194 1.107 
88 632 -3.896062 -1.054463 1.380 
104 632 -4.102020 -0.550492 1.436 
120 632 -4.307979 -0.046521 1.694 
136 632 -3.880816 -0.007447 1.881 
152 632 -4.024607 -0.692296 1.717 
168 632 -3.732998 -0.790800 2.423 
184 632 -3.939917 -0.953754 2.221 
200 632 -3.951820 -1.266918 2.054 
216 632 -3.817385 -1.073422 2.983 
232 632 -3.664455 -0.685755 1.659 
248 632 -3.270386 -0.488429 1.341 
264 632 -2.812514 -0.278980 2.202 
280 632 -3.261979 0.372991 1.847 
296 632 -3.369860 1.163594 1.327 
312 632 -3.296079 1.693861 1.415 
328 632 -3.480682 1.685013 1.093 
344 632 -3.613301 1.324956 1.581 
360 632 -3.283967 1.076595 2.548 
376 632 -3.111052 1.018170 1.446 
392 632 -3.710673 -0.308859 1.781 
408 632 -3.611360 -1.085615 2.522 
424 632 -3.424428 -1.026686 1.760 
440 632 -3.330527 -0.570380 2.184 
456 632 -3.060132 -0.351853 1.872 
472 632 -3.055912 -0.469428 2.128 
488 632 -3.258603 -0.905071 2.439 
504 632 -2.921118 -0.986967 3.107 
520 632 -2.895669 -0.765504 3.560 
536 632 -3.081015 -0.566474 2.077 
552 632 -2.962758 -0.288862 2.326 
568 632 -3.044293 -0.205281 2.052 
584 632 -3.162853 -0.367136 1.041 
600 632 -3.214302 -0.609452 1.132 
616 632 -3.161479 -0.844210 2.644 
632 632 -3.203120 -0.783880 1.738 
648 632 -2.882821 -0.836820 2.663 
664 632 -2.478808 -0.974329 1.257 
680 632 -2.583326 -0.799042 2.292 
696 632 -2.698576 -0.654262 3.626 
712 632 -2.664821 -0.766326 3.117 
728 632 -2.604902 -0.783710 2.417 
744 632 -2.511395 -0.521870 1.917 
760 632 -2.499077 -0.579064 1.476 
776 632 -2.561007 -0.907090 3.230 
792 632 -2.518709 -0.623616 3.303 
808 632 -2.512230 -0.636529 2.258 
824 632 -2.264509 -0.783337 2.545 
840 632 -2.223281 -0.997559 3.289 
856 632 -2.214246 -0.925292 3.132 
872 632 -2.277643 -0.853343 3.310 
888 632 -2.352251 -0.792098 1.137 
904 632 -2.334978 -0.835182 2.266 
920 632 -2.012541 -1.080070 2.875 
936 632 -1.983191 -1.153990 2.231 
952 632 -1.908325 -1.078419 1.386 