TITLE = "B00498"
VARIABLES = "x", "y", "u", "v", "sn"
ZONE T="Frame 0", I=80, J=50
8 792 0.000000 -0.000000 1.154 
24 792 -7.737640 3.640663 1.210 
40 792 -9.289407 3.363793 1.019 
56 792 -10.023535 3.347799 1.185 
72 792 -10.626969 3.186920 1.011 
88 792 -12.755599 -5.645435 1.047 
104 792 -8.897181 -3.014983 1.015 
120 792 -5.038763 -0.384532 1.481 
136 792 -3.549438 -0.246501 1.172 
152 792 -2.301583 2.928241 1.404 
168 792 -2.160239 3.505640 2.429 
184 792 -2.139531 3.688410 1.793 
200 792 -2.263881 3.206404 2.128 
216 792 -2.008026 2.925611 2.779 
232 792 -1.608009 2.925149 4.459 
248 792 -1.599234 2.799828 2.947 
264 792 -2.034052 2.722125 2.467 
280 792 -1.919970 2.905913 2.955 
296 792 -1.065539 3.200599 3.684 
312 792 -1.204519 3.321174 1.451 
328 792 -2.186683 3.509297 1.427 
344 792 -2.325597 3.396312 2.993 
360 792 -2.464511 3.283326 2.676 
376 792 -2.603424 3.170341 2.439 
392 792 -2.236615 3.184543 2.571 
408 792 -1.904168 3.329568 1.165 
424 792 -1.852823 3.240691 1.766 
440 792 -2.242387 3.429606 2.920 
456 792 -2.970362 3.171368 4.498 
472 792 -3.652518 2.349544 4.429 
488 792 -4.263595 2.230997 3.488 
504 792 -4.624932 2.393429 2.939 
520 792 -4.624697 1.481881 2.784 
536 792 -5.061818 1.224076 3.159 
552 792 -5.497431 0.763827 2.453 
568 792 -5.673488 0.049278 1.616 
584 792 -5.306064 -0.188511 2.154 
600 792 -4.537727 -0.454308 2.967 
616 792 -4.192431 -0.293132 2.916 
632 792 -4.112489 0.560309 2.845 
648 792 -3.872981 1.333507 2.122 
664 792 -4.039983 1.057607 3.128 
680 792 -3.463722 0.953028 3.523 
696 792 -2.928617 0.677264 2.683 
712 792 -3.164410 0.439766 2.698 
728 792 -4.469755 0.275283 2.737 
744 792 -6.553607 0.199879 3.468 
760 792 -6.364535 -0.390590 2.415 
776 792 -6.175464 -0.981058 2.506 
792 792 -5.876938 -1.572867 1.889 
808 792 -5.738619 -1.752731 1.650 
824 792 -5.879657 -1.749457 1.623 
840 792 -6.020695 -1.746183 2.468 
856 792 -5.354349 -0.571577 3.211 
872 792 -5.346623 0.270103 1.577 
888 792 -5.611029 0.820130 2.328 
904 792 -5.915789 1.199452 1.249 
920 792 -5.863261 1.276334 1.770 
936 792 -5.778379 1.390959 2.144 
952 792 -6.168786 1.795889 1.277 
968 792 -6.556469 1.074798 2.578 
984 792 -7.130408 -0.101338 1.558 
1000 792 -6.925395 -0.582593 1.426 
1016 792 -6.355702 -0.625837 1.357 
1032 792 -5.889542 -0.480285 1.330 
1048 792 -5.496684 -1.067013 1.012 
1064 792 -5.167797 -2.753532 1.347 
1080 792 -4.838909 -4.440052 2.748 
1096 792 -4.510021 -6.126571 1.062 
1112 792 -4.181133 -7.813091 1.005 
1128 792 -3.852245 -9.499610 1.003 
1144 792 -2.638778 -11.457690 1.015 
1160 792 -1.959916 -14.206584 1.036 
1176 792 -0.783644 -17.273704 1.226 
1192 792 -4.375056 -20.094467 1.041 
1208 792 -7.860674 -21.874572 1.453 
1224 792 -7.526836 -21.783629 1.339 
1240 792 0.808033 -30.212369 1.245 
1256 792 8.762276 6.728839 1.327 
1272 792 5.929703 13.941986 1.136 
8 776 -6.403418 5.414127 1.154 
24 776 -8.564484 5.276561 1.213 
40 776 -9.829706 4.503820 1.014 
56 776 -9.827514 3.285558 1.006 
72 776 -10.508957 3.749924 1.092 
88 776 -11.521233 -4.710034 1.051 
104 776 -11.946297 -6.253504 1.100 
120 776 -5.234092 -0.009000 1.411 
136 776 -3.457596 0.050927 1.238 
152 776 -1.577060 2.899211 1.331 
168 776 -2.079552 4.021326 2.494 
184 776 -2.272870 4.217019 1.832 
200 776 -2.331987 3.588433 2.223 
216 776 -2.088197 3.194963 2.643 
232 776 -1.726157 3.116113 4.135 
248 776 -1.648404 2.965477 3.099 
264 776 -1.921061 2.853837 2.716 
280 776 -1.760601 2.938463 2.811 
296 776 -0.988319 3.172736 3.629 
312 776 -1.108210 3.307234 1.425 
328 776 -1.898974 3.519699 1.455 
344 776 -2.404665 3.969368 3.129 
360 776 -2.445068 3.816758 3.044 
376 776 -2.498159 3.103323 2.786 
392 776 -1.708968 3.525596 2.824 
408 776 -1.332548 3.758978 1.373 
424 776 -1.327066 3.621627 2.122 
440 776 -1.730258 3.656810 3.019 
456 776 -2.517987 3.236644 4.421 
472 776 -3.237760 2.440651 4.847 
488 776 -3.909300 2.363563 3.369 
504 776 -4.339457 2.556798 2.988 
520 776 -4.395776 1.637050 2.876 
536 776 -4.906625 1.225525 3.035 
552 776 -5.399735 0.709725 2.501 
568 776 -5.626949 0.009597 1.670 
584 776 -5.315190 -0.258838 2.173 
600 776 -4.629412 -0.472253 2.769 
616 776 -4.359542 -0.315630 2.828 
632 776 -4.624779 0.842797 2.775 
648 776 -4.423773 1.159690 2.068 
664 776 -4.239832 1.146194 3.361 
680 776 -3.509294 0.897956 3.306 
696 776 -2.848544 0.633444 2.592 
712 776 -2.963817 0.427469 2.654 
728 776 -4.141955 0.356392 2.588 
744 776 -5.657109 0.287458 3.277 
760 776 -5.947564 0.271847 2.535 
776 776 -5.678455 -0.591072 2.700 
792 776 -5.615961 -1.308752 1.913 
808 776 -5.377965 -1.557865 1.590 
824 776 -5.694280 -1.827343 1.579 
840 776 -5.690397 -1.550861 2.423 
856 776 -5.135541 -0.481768 2.556 
872 776 -5.136064 0.419589 1.654 
888 776 -5.397605 1.016203 2.421 
904 776 -5.730630 1.361800 1.220 
920 776 -5.715011 1.320734 1.851 
936 776 -5.688911 1.349734 2.190 
952 776 -6.123365 1.660437 1.262 
968 776 -6.495209 1.001894 2.422 
984 776 -6.995738 -0.163746 1.521 
1000 776 -7.013948 -0.554291 1.431 
1016 776 -6.262867 -0.454082 1.373 
1032 776 -6.023173 -0.047362 1.377 
1048 776 -5.718655 -0.127140 1.002 
1064 776 -5.239753 -0.637555 1.306 
1080 776 -4.815331 -1.417330 2.671 
1096 776 -4.299147 -1.754637 1.074 
1112 776 -4.000745 -2.490270 1.072 
1128 776 -3.767189 -3.576648 1.050 
1144 776 -3.141888 -6.673380 1.033 
1160 776 -1.683517 -9.532352 1.023 
1176 776 -2.001648 -14.571664 1.216 
1192 776 -3.708592 -19.255666 1.058 
1208 776 -9.927933 -20.941886 1.471 
1224 776 -8.860751 -22.095266 1.299 
1240 776 -1.139600 -23.970287 1.314 
1256 776 5.755164 -3.797888 1.344 
1272 776 7.283858 8.819792 1.163 
8 760 1.815903 7.545016 1.058 
24 760 -0.836815 5.185366 1.008 
40 760 -0.668194 0.545207 1.047 
56 760 -9.986713 -4.233028 1.037 
72 760 -8.788750 -0.308804 1.043 
88 760 -7.314825 3.205112 1.026 
104 760 -7.976313 2.011357 1.105 
120 760 -5.429420 0.366532 1.265 
136 760 -1.907634 0.191726 1.279 
152 760 -1.626842 2.332955 1.052 
168 760 -1.929378 4.118806 2.530 
184 760 -2.259075 4.375576 5.296 
200 760 -2.262585 3.781753 3.650 
216 760 -2.033242 3.442736 3.173 
232 760 -1.716171 3.355121 2.424 
248 760 -1.568352 3.340035 1.850 
264 760 -1.632987 3.150809 3.003 
280 760 -1.436084 3.115551 2.162 
296 760 -0.678082 3.158013 3.198 
312 760 -0.729678 3.142826 1.467 
328 760 -1.441814 3.144107 4.436 
344 760 -1.892648 3.886868 3.102 
360 760 -1.941418 4.080103 3.908 
376 760 -1.524518 4.021179 1.226 
392 760 -0.880935 4.047262 2.321 
408 760 -0.311549 4.504737 2.924 
424 760 -0.745060 3.949922 3.444 
440 760 -1.194047 3.826625 2.869 
456 760 -1.922441 3.102950 2.375 
472 760 -2.682770 2.359065 2.875 
488 760 -3.184569 2.298342 2.103 
504 760 -3.558628 2.666144 3.002 
520 760 -3.798758 2.118836 2.579 
536 760 -4.208772 1.337888 1.815 
552 760 -4.811948 0.476614 1.083 
568 760 -5.234572 -0.175290 2.598 
584 760 -5.268054 -0.191716 3.497 
600 760 -4.996748 -0.288348 2.626 
616 760 -4.865875 0.080607 3.192 
632 760 -5.058342 0.777939 2.645 
648 760 -4.935822 1.232930 1.900 
664 760 -4.453345 1.446093 1.456 
680 760 -3.513167 1.021951 1.685 
696 760 -2.623443 0.597343 2.087 
712 760 -2.702676 0.519818 2.433 
728 760 -3.912971 0.357002 2.798 
744 760 -4.835647 0.393688 1.859 
760 760 -5.092539 0.640049 1.567 
776 760 -5.093803 0.368313 2.666 
792 760 -5.432821 -0.746067 1.915 
808 760 -5.110449 -1.466303 1.125 
824 760 -5.320013 -1.442799 1.258 
840 760 -5.133649 -1.041341 2.344 
856 760 -4.790989 -0.283893 2.510 
872 760 -4.630420 0.889134 2.038 
888 760 -5.034119 1.535240 2.820 
904 760 -5.028570 1.710134 4.301 
920 760 -4.980555 1.514361 1.760 
936 760 -5.427000 1.522268 1.514 
952 760 -5.744998 1.623880 1.303 
968 760 -6.084112 1.038079 2.092 
984 760 -6.343156 0.198262 2.058 
1000 760 -6.056132 -0.353853 2.598 
1016 760 -5.644765 -0.152179 1.365 
1032 760 -5.852782 -0.180056 3.746 
1048 760 -5.849030 0.309967 2.075 
1064 760 -5.740410 0.162824 1.354 
1080 760 -5.293057 -0.096791 1.913 
1096 760 -4.833395 -0.171111 1.091 
1112 760 -4.077656 -0.241687 1.231 
1128 760 -4.061265 -0.659946 2.397 
1144 760 -3.684279 -3.120103 1.417 
1160 760 -3.302025 -7.461433 1.653 
1176 760 -3.219653 -11.869624 1.076 
1192 760 -4.270266 -16.132776 1.023 
1208 760 -9.374215 -18.824680 1.023 
1224 760 -7.935426 -23.623716 1.019 
1240 760 -3.087234 -17.728206 1.033 
1256 760 2.805465 -13.478178 1.103 
1272 760 8.638013 3.697598 1.004 
8 744 10.035224 9.675904 1.241 
24 744 9.315169 3.335982 1.213 
40 744 8.493318 -3.413405 1.649 
56 744 -4.092258 -2.773329 1.005 
72 744 -7.068543 -4.367531 1.059 
88 744 -4.994212 -0.327802 1.186 
104 744 -4.287790 1.095186 1.173 
120 744 -2.376389 0.100371 1.050 
136 744 -1.100480 -0.244433 1.191 
152 744 -1.676624 1.766700 1.040 
168 744 -2.096304 3.444458 1.077 
184 744 -2.013219 4.268142 2.394 
200 744 -1.994983 4.031373 1.822 
216 744 -2.059197 3.829063 1.690 
232 744 -1.735355 3.749594 1.458 
248 744 -1.505308 3.830656 1.705 
264 744 -1.237475 3.604213 2.153 
280 744 -0.913213 3.121060 1.786 
296 744 -0.712253 2.730359 2.601 
312 744 -1.224760 2.508775 2.066 
328 744 -1.301022 2.714269 1.578 
344 744 -1.440138 3.539826 2.006 
360 744 -1.666119 3.902001 2.171 
376 744 -1.207395 3.945105 1.405 
392 744 -0.564676 4.069522 2.304 
408 744 -0.420562 4.120104 1.843 
424 744 -0.163055 4.278217 2.143 
440 744 -0.814804 3.746685 2.451 
456 744 -1.387990 3.075620 2.963 
472 744 -2.193881 2.415615 2.343 
488 744 -2.616818 2.426525 2.487 
504 744 -2.954619 2.457961 2.102 
520 744 -3.124503 1.795772 1.333 
536 744 -3.382008 0.841179 2.521 
552 744 -4.180301 0.111740 1.079 
568 744 -4.639875 -0.293313 2.800 
584 744 -4.886337 -0.247964 2.897 
600 744 -5.374793 -0.222076 1.540 
616 744 -4.913051 0.234349 1.819 
632 744 -5.313619 0.933140 2.682 
648 744 -5.275740 1.820603 5.440 
664 744 -4.592888 1.918054 1.731 
680 744 -3.562336 1.249010 2.587 
696 744 -2.839834 0.679680 5.189 
712 744 -3.056507 0.615462 2.817 
728 744 -3.995450 0.192144 2.905 
744 744 -4.674393 0.050426 1.840 
760 744 -4.685313 0.839443 1.702 
776 744 -4.703138 0.720491 3.589 
792 744 -4.910207 -0.547199 1.952 
808 744 -4.891173 -1.379265 1.299 
824 744 -4.900445 -1.023473 2.480 
840 744 -5.045313 -0.594638 4.234 
856 744 -4.881999 0.058996 2.708 
872 744 -4.869464 1.112451 3.798 
888 744 -4.973648 1.769336 4.246 
904 744 -4.899301 1.912354 3.631 
920 744 -4.691711 1.681504 2.922 
936 744 -4.845588 1.476468 1.289 
952 744 -5.210619 1.749973 1.912 
968 744 -5.325752 1.512655 1.968 
984 744 -5.493882 0.688931 1.773 
1000 744 -5.148478 0.201900 1.997 
1016 744 -4.851117 0.294460 1.093 
1032 744 -5.491011 0.275880 1.592 
1048 744 -5.883051 0.601800 1.417 
1064 744 -6.048787 0.717394 1.123 
1080 744 -5.892299 0.435349 1.687 
1096 744 -5.341819 0.005890 1.200 
1112 744 -4.998729 0.440824 1.451 
1128 744 -4.394858 -0.364267 2.197 
1144 744 -3.965653 -1.090965 2.129 
1160 744 -3.982940 -3.537648 2.431 
1176 744 -3.772467 -5.271607 1.333 
1192 744 -5.815175 -9.383397 1.199 
1208 744 -8.820497 -16.707475 1.036 
1224 744 -9.547166 -14.344934 1.177 
1240 744 -6.332908 -6.858120 1.211 
1256 744 -0.931020 0.567997 1.008 
1272 744 7.985903 5.105563 1.046 
8 728 4.661607 2.528641 1.232 
24 728 7.717253 -2.315139 1.039 
40 728 2.864403 -2.097888 1.049 
56 728 -1.988447 -1.880638 1.311 
72 728 -3.392607 -2.863967 1.048 
88 728 -1.995936 -1.342476 1.221 
104 728 -0.599266 0.179014 1.140 
120 728 -0.914418 0.031586 1.057 
136 728 -1.229571 -0.115842 1.252 
152 728 -2.955076 2.549063 1.038 
168 728 -2.372419 4.005900 1.433 
184 728 -2.064640 4.528928 2.470 
200 728 -1.979067 4.252925 1.876 
216 728 -1.805337 3.935388 2.087 
232 728 -1.650211 3.966456 2.202 
248 728 -1.306708 4.113787 1.740 
264 728 -1.103532 3.863190 2.131 
280 728 -1.327370 2.808343 2.583 
296 728 -1.537218 2.337998 2.746 
312 728 -1.350813 2.254775 1.765 
328 728 -1.517778 2.581510 1.563 
344 728 -1.121656 3.237978 1.794 
360 728 -1.221849 3.734571 1.715 
376 728 -0.879103 3.543330 1.315 
392 728 -0.552271 3.599016 1.306 
408 728 -0.529574 3.735471 4.216 
424 728 -0.490743 3.748391 2.984 
440 728 -0.777054 3.316331 2.331 
456 728 -1.253771 2.850698 2.405 
472 728 -1.490865 2.359638 3.006 
488 728 -1.978524 2.253957 1.539 
504 728 -2.564309 2.246101 3.129 
520 728 -3.019237 1.792655 3.239 
536 728 -3.482923 0.741329 2.700 
552 728 -3.760468 -0.006783 1.594 
568 728 -3.897546 -0.295840 2.378 
584 728 -4.205570 -0.371595 2.010 
600 728 -4.743736 -0.352630 1.686 
616 728 -4.960228 0.388092 1.906 
632 728 -4.859571 1.494936 3.202 
648 728 -4.811656 2.824528 1.543 
664 728 -4.392124 2.683524 2.168 
680 728 -3.736968 1.382516 2.199 
696 728 -3.172531 0.634346 2.725 
712 728 -3.604969 0.333925 2.460 
728 728 -4.715192 -0.236318 2.543 
744 728 -4.925441 -0.023133 2.140 
760 728 -4.855403 0.611075 1.929 
776 728 -4.493621 0.919043 1.518 
792 728 -4.407139 -0.288053 2.598 
808 728 -4.319991 -0.935544 2.832 
824 728 -4.600895 -0.676235 2.270 
840 728 -4.853714 -0.389212 2.767 
856 728 -4.523125 0.464235 2.567 
872 728 -4.557212 1.318419 1.928 
888 728 -4.781242 1.679062 2.778 
904 728 -5.050886 1.456079 5.261 
920 728 -4.679527 1.615887 2.027 
936 728 -4.446708 1.656164 1.334 
952 728 -4.744713 1.558738 2.113 
968 728 -4.751205 1.451967 2.594 
984 728 -4.731048 1.306366 2.273 
1000 728 -4.613234 1.114293 3.037 
1016 728 -4.424365 0.744702 1.698 
1032 728 -4.994349 0.688561 1.864 
1048 728 -5.689154 0.813455 1.830 
1064 728 -5.745338 0.705116 1.521 
1080 728 -5.666858 0.332265 1.521 
1096 728 -5.455688 0.262205 2.837 
1112 728 -4.841665 -0.021877 4.551 
1128 728 -4.728451 -0.068588 3.249 
1144 728 -4.475145 -0.572291 1.800 
1160 728 -4.602440 -1.327129 1.883 
1176 728 -5.879743 -1.965244 1.011 
1192 728 -7.157045 -2.603359 1.454 
1208 728 -6.656307 -1.530437 1.047 
1224 728 -6.155568 -0.457514 1.195 
1240 728 -5.284554 -3.710418 1.203 
1256 728 -1.177953 0.298650 1.508 
1272 728 7.333792 6.513529 1.109 
8 712 -0.712011 -4.618622 1.168 
24 712 3.644693 -4.245450 1.117 
40 712 1.249250 -2.666737 1.474 
56 712 -0.974023 -0.999256 1.023 
72 712 -1.353539 -0.661978 1.006 
88 712 -0.625176 0.049943 1.348 
104 712 -0.854265 1.017165 1.359 
120 712 -0.749536 -0.103744 1.390 
136 712 -2.190571 1.669964 2.573 
152 712 -2.890677 3.639439 3.874 
168 712 -2.648535 4.567342 2.404 
184 712 -2.043879 4.857347 2.215 
200 712 -1.936160 4.366810 1.910 
216 712 -1.768453 3.710323 3.653 
232 712 -1.531867 3.730342 4.457 
248 712 -0.983342 3.989521 2.497 
264 712 -0.799743 3.765576 4.257 
280 712 -1.306008 2.639962 1.941 
296 712 -1.347246 2.138636 3.149 
312 712 -1.476865 2.000774 2.038 
328 712 -1.059423 2.864602 1.895 
344 712 -0.780644 3.338072 1.657 
360 712 -0.667252 3.257349 1.713 
376 712 -0.430927 2.913740 1.951 
392 712 -0.444831 2.986392 1.537 
408 712 -0.644105 3.708641 2.655 
424 712 -0.413801 3.497815 3.666 
440 712 -0.437505 3.291363 4.127 
456 712 -0.759766 2.934267 2.355 
472 712 -0.965561 2.351610 4.251 
488 712 -1.134992 1.926456 1.631 
504 712 -1.838609 1.791319 2.562 
520 712 -2.471059 1.349258 2.987 
536 712 -2.996424 0.641436 2.304 
552 712 -3.328159 0.189367 1.775 
568 712 -3.305726 0.225153 5.042 
584 712 -3.308913 -0.283533 6.025 
600 712 -3.743445 -0.619320 2.451 
616 712 -4.186777 0.020488 1.436 
632 712 -4.242421 1.746643 2.591 
648 712 -4.237767 3.169977 1.521 
664 712 -4.114983 2.973197 1.618 
680 712 -4.142480 1.350374 2.537 
696 712 -3.774731 0.465638 4.357 
712 712 -4.149019 -0.143248 3.006 
728 712 -4.924165 -0.379574 3.098 
744 712 -5.176489 -0.096692 3.592 
760 712 -4.807292 0.362023 4.561 
776 712 -4.243770 0.697261 2.116 
792 712 -3.896108 0.133130 2.153 
808 712 -3.565659 -0.546366 2.747 
824 712 -3.724792 -0.400390 1.517 
840 712 -3.802502 -0.070536 3.899 
856 712 -3.824565 0.691338 3.101 
872 712 -4.076591 1.232546 2.127 
888 712 -4.703314 1.348856 2.061 
904 712 -4.974798 1.017900 2.684 
920 712 -4.844943 1.316075 2.545 
936 712 -4.458306 1.836491 1.750 
952 712 -4.348813 1.494252 3.011 
968 712 -4.461914 1.356625 3.245 
984 712 -4.451782 1.201783 3.983 
1000 712 -4.373422 1.203319 3.064 
1016 712 -4.326169 1.100651 2.297 
1032 712 -4.532869 0.983695 2.931 
1048 712 -5.065457 0.729241 1.076 
1064 712 -5.254006 0.434580 3.223 
1080 712 -5.064959 0.446934 2.031 
1096 712 -4.851537 0.260914 2.917 
1112 712 -4.684601 -0.484577 3.630 
1128 712 -4.578163 -0.792732 2.627 
1144 712 -4.203193 -0.497945 3.711 
1160 712 -4.335700 -0.633409 2.143 
1176 712 -5.371706 -1.247238 1.582 
1192 712 -6.363822 -1.585220 1.150 
1208 712 -5.796452 -2.180890 1.003 
1224 712 -5.422226 -3.291364 1.061 
1240 712 -3.725432 -2.134964 1.238 
1256 712 -2.305373 3.841535 1.223 
1272 712 6.681681 7.921494 1.299 
8 696 -4.728937 -5.773069 1.440 
24 696 -0.427866 -6.175761 1.569 
40 696 -0.365902 -3.235586 1.192 
56 696 0.040400 -0.117874 1.003 
72 696 0.685529 1.540010 1.172 
88 696 0.745584 1.442361 1.272 
104 696 -1.109265 1.855316 1.427 
120 696 -2.860564 2.344501 1.932 
136 696 -3.151572 3.455770 1.793 
152 696 -3.083223 3.756651 3.229 
168 696 -2.695044 5.003057 2.466 
184 696 -2.226239 4.522235 2.373 
200 696 -2.066861 4.110758 2.916 
216 696 -1.808097 3.606879 3.474 
232 696 -1.535571 3.417895 3.451 
248 696 -0.997622 3.487478 2.228 
264 696 -0.630868 3.433302 2.124 
280 696 -0.953899 3.097487 1.611 
296 696 -0.838871 2.484163 2.341 
312 696 -0.654434 2.541830 1.977 
328 696 -0.708277 2.689532 2.259 
344 696 -0.436233 2.879034 2.323 
360 696 -0.355258 2.708817 2.343 
376 696 -0.209706 2.451348 2.360 
392 696 0.566462 2.321805 1.786 
408 696 -0.060338 3.083287 1.303 
424 696 0.128225 3.161724 1.137 
440 696 0.018310 3.161732 2.550 
456 696 -0.310398 2.849209 2.798 
472 696 -0.088258 2.198822 2.182 
488 696 -0.844504 1.568677 2.975 
504 696 -0.517511 1.010680 2.891 
520 696 -1.408921 0.679302 2.402 
536 696 -2.097065 0.134384 2.358 
552 696 -2.794111 -0.037169 2.403 
568 696 -2.603660 0.017075 4.080 
584 696 -2.679268 -0.262312 3.739 
600 696 -3.109699 -1.013072 1.907 
616 696 -3.386658 -0.399616 1.385 
632 696 -3.440914 1.088419 2.910 
648 696 -3.112638 2.555403 2.111 
664 696 -3.668034 2.469328 2.003 
680 696 -4.411942 1.049580 1.457 
696 696 -4.859538 0.003390 1.769 
712 696 -4.693068 -0.620422 2.022 
728 696 -4.881404 -0.662217 2.061 
744 696 -4.873225 -0.394118 3.062 
760 696 -4.602583 -0.129329 3.079 
776 696 -4.165137 0.148322 1.610 
792 696 -3.400367 0.298372 1.079 
808 696 -3.194464 -0.386397 2.315 
824 696 -3.438977 -0.557846 2.107 
840 696 -3.393860 -0.095802 2.655 
856 696 -3.561401 0.591094 5.847 
872 696 -3.950529 0.925809 2.861 
888 696 -4.797982 0.869717 1.692 
904 696 -4.961799 1.099019 3.008 
920 696 -4.825703 1.784888 3.099 
936 696 -4.526668 2.066663 2.263 
952 696 -4.536295 1.385477 1.241 
968 696 -4.490979 1.107124 1.661 
984 696 -4.300837 1.061470 3.209 
1000 696 -4.259282 1.172307 2.878 
1016 696 -4.604387 1.430503 2.799 
1032 696 -4.589363 1.099921 1.293 
1048 696 -4.840621 0.799357 1.182 
1064 696 -5.104937 0.580676 1.385 
1080 696 -4.527382 1.133282 3.707 
1096 696 -4.403735 0.749183 3.991 
1112 696 -4.723934 0.003044 3.110 
1128 696 -4.842789 -0.317399 3.154 
1144 696 -3.861573 -0.873265 2.271 
1160 696 -3.965853 -0.567963 2.589 
1176 696 -4.622374 -0.504945 1.678 
1192 696 -5.570599 -0.567080 1.032 
1208 696 -4.810084 -0.647946 1.028 
1224 696 -1.378876 0.626298 1.133 
1240 696 -1.883941 -2.722062 1.036 
1256 696 0.518099 8.433742 1.195 
1272 696 6.029571 9.329460 1.115 
8 680 -8.745862 -6.927517 1.051 
24 680 -4.070199 -5.282625 1.001 
40 680 -3.358003 -4.185407 1.250 
56 680 -0.912015 -2.425306 1.223 
72 680 0.465703 -0.576729 1.367 
88 680 0.321385 0.492202 1.528 
104 680 -1.758838 1.440570 1.226 
120 680 -4.036566 2.958112 1.964 
136 680 -3.417537 3.535343 1.974 
152 680 -3.275768 3.873864 2.265 
168 680 -2.532914 4.184903 1.697 
184 680 -2.208874 4.123144 1.128 
200 680 -2.035082 3.779890 1.788 
216 680 -2.019162 3.410495 1.451 
232 680 -2.003241 3.041100 2.051 
248 680 -1.420107 3.227602 2.236 
264 680 -0.992233 3.612683 3.092 
280 680 -0.838353 3.705948 1.724 
296 680 -0.668592 3.367946 1.592 
312 680 -0.698622 3.213415 2.069 
328 680 -0.430521 2.548485 3.134 
344 680 -0.281809 2.263268 3.711 
360 680 -0.469323 2.297304 1.873 
376 680 -0.042283 2.216191 2.603 
392 680 0.380078 2.131507 1.762 
408 680 0.401320 2.516097 1.177 
424 680 0.364767 2.683056 1.041 
440 680 0.024160 2.582668 2.236 
456 680 -0.441253 2.296025 2.454 
472 680 -0.639400 1.729593 1.023 
488 680 -0.554015 1.210898 1.570 
504 680 -0.526044 0.644987 5.436 
520 680 -0.727297 0.339679 4.758 
536 680 -1.515300 -0.054907 4.097 
552 680 -2.487867 -0.318216 3.224 
568 680 -2.432528 -0.403588 2.956 
584 680 -2.395026 -0.793633 3.600 
600 680 -2.619876 -1.118256 1.831 
616 680 -2.543261 -1.009790 2.170 
632 680 -2.410174 0.699101 2.703 
648 680 -2.368689 2.203797 2.830 
664 680 -3.221084 1.965460 2.896 
680 680 -4.247104 0.518178 2.581 
696 680 -4.570910 -0.474494 2.724 
712 680 -4.775201 -0.885946 2.806 
728 680 -4.711206 -0.401373 2.328 
744 680 -4.580175 -0.392216 3.132 
760 680 -4.275634 -0.189458 2.243 
776 680 -3.814966 0.076617 1.966 
792 680 -3.088992 0.225183 1.150 
808 680 -2.952249 -0.330129 1.461 
824 680 -3.393381 -0.879359 2.638 
840 680 -3.775094 -0.596007 1.588 
856 680 -4.013989 0.121827 3.456 
872 680 -4.161165 0.325019 2.424 
888 680 -4.480835 0.521646 1.150 
904 680 -4.579420 1.178085 2.666 
920 680 -4.249209 1.770529 2.313 
936 680 -4.204466 1.733999 1.724 
952 680 -4.275419 1.371857 1.017 
968 680 -4.244462 1.183101 1.008 
984 680 -4.059180 1.044383 4.125 
1000 680 -4.173992 1.273301 2.750 
1016 680 -4.327571 1.524453 5.104 
1032 680 -4.531315 1.409933 1.754 
1048 680 -4.771261 1.270892 2.662 
1064 680 -4.750579 1.274600 2.586 
1080 680 -4.599318 1.254013 2.234 
1096 680 -4.448057 1.233426 3.260 
1112 680 -4.528259 0.024443 3.239 
1128 680 -4.584906 -0.079402 3.331 
1144 680 -3.795893 -0.112178 1.394 
1160 680 -3.596006 -0.502518 1.493 
1176 680 -4.311768 -0.877171 1.434 
1192 680 -3.951926 -0.772661 1.012 
1208 680 -1.903941 -0.174944 1.175 
1224 680 -0.100530 0.439234 1.053 
1240 680 2.121366 2.424047 1.055 
1256 680 2.069026 6.487676 1.229 
1272 680 5.377460 10.737426 1.217 
8 664 -8.259252 -4.827246 1.012 
24 664 -5.932310 -3.375182 1.077 
40 664 -4.974218 -4.943480 1.110 
56 664 -3.026016 -3.937184 1.486 
72 664 0.017898 -2.436357 1.429 
88 664 -0.102814 -0.457958 1.066 
104 664 -2.308558 1.588420 1.151 
120 664 -3.823406 2.988811 1.006 
136 664 -3.204620 3.335381 2.405 
152 664 -2.981256 3.872542 2.338 
168 664 -2.544420 3.948576 1.365 
184 664 -2.386728 3.786043 1.562 
200 664 -2.175953 3.435357 1.855 
216 664 -2.105750 3.392361 1.217 
232 664 -2.035547 3.349364 1.429 
248 664 -1.762596 3.723254 2.598 
264 664 -1.337760 4.235024 2.166 
280 664 -1.120770 4.090857 2.656 
296 664 -0.946751 3.379297 1.541 
312 664 -1.048710 3.141231 2.022 
328 664 -0.681999 2.853496 2.012 
344 664 -0.096600 2.271269 2.249 
360 664 0.002172 2.160421 1.930 
376 664 0.235669 2.297996 2.459 
392 664 0.458088 2.105300 1.611 
408 664 0.443282 2.281108 1.003 
424 664 0.182612 2.367843 2.371 
440 664 -0.632317 2.025140 2.273 
456 664 -0.965439 1.641347 1.629 
472 664 -1.097314 1.224064 1.706 
488 664 -0.815952 1.062554 1.076 
504 664 -0.596372 0.797468 3.801 
520 664 -0.750983 0.304592 6.504 
536 664 -1.420119 0.073469 4.275 
552 664 -2.283697 0.043621 3.271 
568 664 -2.435882 -0.221717 3.677 
584 664 -2.363436 -0.702177 2.975 
600 664 -2.130053 -1.223439 2.871 
616 664 -1.878048 -0.568007 3.023 
632 664 -1.833908 0.860614 2.799 
648 664 -2.224842 1.920956 2.183 
664 664 -3.196563 1.671176 1.885 
680 664 -3.875431 0.054087 2.311 
696 664 -3.983912 -0.833032 1.701 
712 664 -4.187340 -0.853829 2.013 
728 664 -4.191373 -0.317311 1.689 
744 664 -3.884423 -0.153004 5.048 
760 664 -3.456174 -0.076204 3.973 
776 664 -3.209021 0.098961 5.516 
792 664 -2.839665 0.126761 6.634 
808 664 -2.814942 -0.276987 6.018 
824 664 -3.347785 -1.200873 2.397 
840 664 -3.855244 -0.788569 2.751 
856 664 -4.050363 0.032403 3.187 
872 664 -3.979544 0.536097 3.497 
888 664 -4.172934 0.352354 3.756 
904 664 -4.009037 1.046578 3.360 
920 664 -4.041481 1.274489 3.234 
936 664 -4.074976 1.271773 2.017 
952 664 -4.120569 1.223963 1.775 
968 664 -4.038635 1.224136 3.364 
984 664 -3.825756 1.103362 2.286 
1000 664 -3.841232 1.299445 2.783 
1016 664 -3.824503 1.537907 2.938 
1032 664 -4.043329 1.698136 3.543 
1048 664 -4.469709 1.612423 2.185 
1064 664 -4.318280 1.551149 2.138 
1080 664 -4.247921 1.393458 1.379 
1096 664 -4.177562 1.235767 1.612 
1112 664 -4.332584 0.045843 1.154 
1128 664 -4.316088 -0.013054 1.872 
1144 664 -3.773051 -0.018425 1.653 
1160 664 -3.413026 -0.351871 2.425 
1176 664 -4.115225 -0.787789 2.799 
1192 664 -3.846608 -0.751335 1.777 
1208 664 -1.818191 -0.786490 1.437 
1224 664 1.177815 0.252169 1.393 
1240 664 3.906578 3.032970 1.155 
1256 664 3.297880 2.900183 1.422 
1272 664 3.505418 2.284235 1.382 
8 648 -7.772642 -2.726976 1.029 
24 648 -6.035217 -0.625835 1.089 
40 648 -5.253100 -4.768132 1.010 
56 648 -1.433330 -2.133468 1.586 
72 648 -0.414303 -2.798137 1.044 
88 648 -0.659455 0.568325 1.092 
104 648 -2.818028 2.443733 1.022 
120 648 -3.471161 3.362764 1.021 
136 648 -3.478107 3.288235 2.183 
152 648 -3.213447 3.411268 2.087 
168 648 -3.101415 3.473779 1.521 
184 648 -3.053559 3.503632 2.050 
200 648 -2.632678 3.357009 2.387 
216 648 -2.439058 3.239828 2.059 
232 648 -2.065634 3.599215 2.515 
248 648 -1.750319 4.139363 1.830 
264 648 -1.689016 4.276240 3.457 
280 648 -1.339425 4.117365 1.983 
296 648 -0.916579 3.645399 2.061 
312 648 -0.906391 3.307683 2.095 
328 648 -0.326724 3.156565 1.912 
344 648 0.191048 2.529908 2.384 
360 648 0.272481 2.520613 1.769 
376 648 0.527781 2.899713 2.221 
392 648 0.492981 2.712241 2.016 
408 648 -0.161296 2.525106 1.532 
424 648 -0.982150 2.447748 1.536 
440 648 -1.249153 2.089888 3.164 
456 648 -1.266187 2.550911 2.110 
472 648 -0.822320 2.961398 2.866 
488 648 -0.852302 1.904896 4.978 
504 648 -0.613178 0.951731 2.115 
520 648 -1.055121 0.247177 4.338 
536 648 -1.908593 0.197502 3.954 
552 648 -2.439624 0.287743 11.184 
568 648 -2.526708 0.203435 5.103 
584 648 -2.406951 -0.124143 1.502 
600 648 -1.900632 -0.360768 1.132 
616 648 -1.784081 0.011834 2.189 
632 648 -1.695207 0.956404 3.595 
648 648 -2.778869 1.434279 1.611 
664 648 -3.396707 1.308696 2.370 
680 648 -3.816753 0.425588 2.839 
696 648 -3.608777 -0.426005 1.918 
712 648 -3.599479 -0.821712 2.561 
728 648 -3.641811 -0.202747 2.494 
744 648 -3.306143 -0.110383 3.632 
760 648 -3.003103 -0.198895 3.906 
776 648 -3.086362 -0.076278 2.735 
792 648 -2.969662 -0.034905 6.762 
808 648 -3.013153 -0.316644 8.431 
824 648 -3.448704 -1.035235 1.704 
840 648 -4.029473 -0.732027 2.347 
856 648 -4.157885 0.025046 2.881 
872 648 -3.907219 -0.008592 1.240 
888 648 -3.870984 0.202610 1.212 
904 648 -3.919018 0.688858 3.416 
920 648 -4.103919 0.891501 2.883 
936 648 -4.235573 0.862425 2.393 
952 648 -4.261282 1.049381 2.276 
968 648 -4.165883 1.056673 3.009 
984 648 -3.995837 1.082579 2.209 
1000 648 -3.685480 1.107734 2.910 
1016 648 -3.501657 1.472774 1.368 
1032 648 -3.487079 1.645180 2.131 
1048 648 -3.712852 1.506108 2.013 
1064 648 -3.961784 1.532921 2.715 
1080 648 -4.335655 1.417363 2.102 
1096 648 -4.308890 0.941647 1.722 
1112 648 -4.228198 0.070119 1.126 
1128 648 -4.130494 -0.205592 1.527 
1144 648 -3.592916 0.042448 2.408 
1160 648 -3.410113 -0.107277 2.422 
1176 648 -3.722351 -0.297899 2.775 
1192 648 -3.741291 -0.730009 1.619 
1208 648 -2.093807 -0.248711 1.501 
1224 648 1.639736 0.623988 1.408 
1240 648 5.691791 3.641892 1.078 
1256 648 3.269328 2.176889 1.099 
1272 648 2.161865 1.136413 1.009 
8 632 -7.286032 -0.626705 1.039 
24 632 -5.774645 0.072949 1.056 
40 632 -2.633259 -2.452430 1.883 
56 632 0.159356 -0.329753 1.786 
72 632 -0.797769 0.145449 1.069 
88 632 -1.378155 2.729512 1.142 
104 632 -3.224467 4.034219 1.116 
120 632 -3.802450 4.052629 1.532 
136 632 -3.620975 3.602548 1.294 
152 632 -3.008507 3.475310 1.371 
168 632 -3.030314 3.672958 2.172 
184 632 -2.906671 2.870762 1.077 
200 632 -2.969744 2.827239 1.792 
216 632 -2.481033 3.118286 1.811 
232 632 -2.101283 3.576187 3.309 
248 632 -1.935483 3.797759 2.322 
264 632 -1.856390 4.329266 1.726 
280 632 -1.338327 4.342784 2.434 
296 632 -0.973415 4.009567 2.336 
312 632 -0.704554 3.606025 2.044 
328 632 -0.514437 3.023680 2.848 
344 632 -0.167034 2.476754 1.430 
360 632 -0.202156 2.696890 1.378 
376 632 0.120342 2.764172 2.312 
392 632 0.163553 2.776984 1.773 
408 632 -0.877636 2.375876 1.910 
424 632 -1.503575 2.814013 1.094 
440 632 -1.769018 2.875907 2.234 
456 632 -1.212045 3.691528 3.260 
472 632 -1.140637 3.683454 7.633 
488 632 -0.888652 2.747239 3.003 
504 632 -1.408091 1.073252 2.790 
520 632 -1.906577 0.175799 1.917 
536 632 -2.384795 0.262152 4.026 
552 632 -2.708919 0.538037 10.593 
568 632 -2.661590 0.744203 4.796 
584 632 -2.534604 0.831702 1.787 
600 632 -1.905139 0.717941 2.078 
616 632 -1.690114 0.591675 3.411 
632 632 -2.100948 0.886925 2.135 
648 632 -3.332896 0.947601 1.260 
664 632 -3.933460 0.776625 1.556 
680 632 -3.859622 0.318437 2.178 
696 632 -3.762941 -0.289480 3.221 
712 632 -3.586910 -0.548820 3.179 
728 632 -3.358094 -0.348911 3.293 
744 632 -3.205521 -0.425192 2.969 
760 632 -3.185842 -0.391108 1.433 
776 632 -3.491308 -0.420749 2.129 
792 632 -3.678119 -0.278070 2.554 
808 632 -3.689411 -0.442652 3.090 
824 632 -3.885898 -0.805220 1.914 
840 632 -4.228848 -0.490671 2.017 
856 632 -4.332544 -0.408816 2.373 
872 632 -3.831431 -0.031069 1.287 
888 632 -3.914338 -0.076018 1.235 
904 632 -3.904427 0.280763 1.906 
920 632 -4.051301 0.650428 3.042 
936 632 -4.429188 0.915201 3.104 
952 632 -4.646230 1.022755 3.549 
968 632 -4.355856 0.878511 2.489 
984 632 -4.027397 0.900536 3.440 
1000 632 -3.778460 0.879753 2.154 
1016 632 -3.436545 1.199820 1.224 
1032 632 -3.433889 1.505374 2.848 
1048 632 -3.292354 1.146545 2.025 
1064 632 -3.499398 0.999857 2.764 
1080 632 -4.207423 0.996411 2.201 
1096 632 -4.328098 0.803647 1.943 