TITLE = "B00412"
VARIABLES = "x", "y", "u", "v", "sn"
ZONE T="Frame 0", I=80, J=50
8 792 0.000000 -0.000000 1.435 
24 792 0.000000 -0.000000 1.252 
40 792 0.000000 -0.000000 1.242 
56 792 0.000000 -0.000000 1.350 
72 792 -4.715083 -1.823031 1.041 
88 792 -3.559668 -5.120877 1.017 
104 792 -2.953092 -4.748597 1.013 
120 792 -2.528345 -1.091085 1.882 
136 792 -1.016642 -0.974884 1.401 
152 792 -0.706822 -1.377013 1.213 
168 792 -0.397003 -1.779142 1.542 
184 792 -9.212927 -4.873528 1.308 
200 792 -13.232136 -6.511879 2.429 
216 792 -17.251345 -8.150229 2.047 
232 792 -3.572068 2.579796 1.141 
248 792 -3.349336 2.410583 2.002 
264 792 -3.126605 2.241370 1.748 
280 792 -2.903873 2.072157 1.540 
296 792 -2.399803 1.972891 1.627 
312 792 -2.472563 2.300944 1.799 
328 792 -2.027061 2.722244 2.141 
344 792 -1.723160 2.626551 2.904 
360 792 -1.722865 2.579400 2.187 
376 792 -1.783143 3.042087 1.853 
392 792 -1.596330 4.064376 1.404 
408 792 -1.590415 3.663649 1.061 
424 792 -1.701503 2.796312 2.020 
440 792 -1.973826 2.244700 2.567 
456 792 -1.693159 2.117012 2.924 
472 792 -1.497623 1.838580 2.405 
488 792 -1.842350 1.347879 2.345 
504 792 -2.772499 0.880857 1.942 
520 792 -3.178661 1.022115 1.397 
536 792 -3.370526 1.073939 3.151 
552 792 -3.260619 1.098088 2.222 
568 792 -3.017803 1.061257 2.723 
584 792 -2.902812 1.494089 3.540 
600 792 -2.333354 2.017454 3.149 
616 792 -2.009312 2.031004 2.604 
632 792 -1.922745 2.076610 3.023 
648 792 -2.300867 1.862059 4.215 
664 792 -3.111562 1.511160 2.681 
680 792 -3.615265 1.790059 1.736 
696 792 -3.711289 1.723180 2.696 
712 792 -3.565766 1.391494 2.020 
728 792 -3.259502 1.149353 1.921 
744 792 -3.093127 1.253602 1.797 
760 792 -2.916580 1.445243 2.626 
776 792 -2.758152 1.598364 5.684 
792 792 -2.771382 1.299692 4.338 
808 792 -2.760873 0.600710 3.449 
824 792 -2.856555 -0.924552 1.709 
840 792 -3.266798 -1.582764 1.509 
856 792 -4.108638 -1.797078 4.041 
872 792 -4.589404 -1.779299 2.443 
888 792 -4.635382 -1.648393 2.007 
904 792 -4.458671 -1.333662 1.681 
920 792 -4.297938 -1.278927 1.538 
936 792 -4.211448 -1.253610 1.571 
952 792 -4.283338 -1.305849 2.937 
968 792 -4.355227 -1.358087 2.605 
984 792 -4.234876 -1.976560 2.473 
1000 792 -4.379261 -1.647142 6.125 
1016 792 -4.468980 -1.113927 5.734 
1032 792 -4.393887 -0.740587 2.644 
1048 792 -3.994979 -0.718897 1.362 
1064 792 -3.596072 -0.697206 1.493 
1080 792 -3.553260 -0.661709 1.026 
1096 792 -3.486320 -0.413573 1.049 
1112 792 -3.419380 -0.165436 1.179 
1128 792 -2.647402 0.434848 1.160 
1144 792 -1.197727 1.240762 1.172 
1160 792 9.458518 -2.184568 1.024 
1176 792 6.672385 -0.606782 1.142 
1192 792 3.886252 0.971004 1.107 
1208 792 1.100119 2.548791 1.281 
1224 792 -3.251765 2.012175 1.101 
1240 792 0.000000 -0.000000 1.318 
1256 792 0.000000 -0.000000 1.009 
1272 792 0.000000 -0.000000 1.076 
8 776 2.753217 -1.273054 1.482 
24 776 3.521450 0.272402 1.366 
40 776 -9.946431 0.338645 1.177 
56 776 -7.682396 -1.969030 1.383 
72 776 -4.837896 -5.450302 1.115 
88 776 -3.287815 -7.042690 1.044 
104 776 -2.996585 -5.062361 1.008 
120 776 -2.523594 0.007247 1.852 
136 776 -1.279462 0.912614 1.541 
152 776 0.096007 -1.352449 1.199 
168 776 -0.362702 -0.330194 1.569 
184 776 -7.180845 -3.093774 1.350 
200 776 -13.811745 -6.158221 2.381 
216 776 -13.886550 -5.903760 2.112 
232 776 -3.315599 1.960203 1.166 
248 776 -2.497329 2.502034 2.034 
264 776 -2.480603 2.375030 1.678 
280 776 -2.463877 2.248025 1.412 
296 776 -2.265233 2.113418 1.563 
312 776 -2.513451 2.358139 1.847 
328 776 -2.103093 2.734720 2.195 
344 776 -1.751813 2.665507 2.687 
360 776 -1.725185 2.745892 2.250 
376 776 -1.682602 3.223986 1.860 
392 776 -1.548558 4.168753 1.443 
408 776 -1.708076 3.640720 1.151 
424 776 -1.916225 2.731226 1.976 
440 776 -2.154023 2.093354 2.504 
456 776 -1.949908 1.956156 2.983 
472 776 -1.806958 1.746529 2.334 
488 776 -2.080201 1.286873 2.305 
504 776 -2.940236 0.854809 1.965 
520 776 -3.294995 0.978779 1.428 
536 776 -3.602131 1.198699 3.290 
552 776 -3.317468 1.078490 2.229 
568 776 -3.057077 1.051051 2.736 
584 776 -2.942522 1.412988 3.487 
600 776 -2.479650 1.960606 3.022 
616 776 -2.181768 1.976594 2.598 
632 776 -2.167601 1.912549 3.252 
648 776 -2.583892 1.713085 4.390 
664 776 -3.327911 1.458201 2.700 
680 776 -3.657556 1.792812 1.778 
696 776 -3.703449 1.791504 2.809 
712 776 -3.542248 1.602301 2.114 
728 776 -3.159669 1.462601 2.078 
744 776 -2.954204 1.622597 2.256 
760 776 -2.918438 2.028946 3.154 
776 776 -2.718173 1.890337 5.076 
792 776 -2.758527 1.570498 4.322 
808 776 -2.841345 0.772426 3.480 
824 776 -2.943332 -0.775944 1.741 
840 776 -3.278787 -1.490230 1.582 
856 776 -4.073353 -1.712000 4.029 
872 776 -4.540390 -1.720508 2.434 
888 776 -4.575641 -1.628193 1.971 
904 776 -4.422624 -1.407658 1.695 
920 776 -4.320618 -1.344464 1.586 
936 776 -4.286992 -1.299877 1.586 
952 776 -4.179014 -1.081934 2.879 
968 776 -4.436200 -1.367974 2.615 
984 776 -4.313268 -1.952096 2.618 
1000 776 -4.443145 -1.655274 5.508 
1016 776 -4.469387 -1.176262 5.486 
1032 776 -4.415473 -0.838270 2.708 
1048 776 -4.099823 -1.002374 1.346 
1064 776 -3.784172 -1.166478 1.410 
1080 776 -3.439833 -1.661497 1.019 
1096 776 -3.625248 -1.475027 1.167 
1112 776 -3.424949 -1.302350 1.131 
1128 776 -2.612382 -0.893803 1.181 
1144 776 -0.451577 -0.352631 1.158 
1160 776 7.599845 -3.181771 1.008 
1176 776 6.485110 -1.953771 1.111 
1192 776 5.370375 -0.725771 1.218 
1208 776 2.551678 -5.037281 1.219 
1224 776 -2.949537 -4.592138 1.145 
1240 776 -3.204005 -2.163812 1.255 
1256 776 0.753348 0.054169 1.109 
1272 776 -0.057954 -3.568759 1.055 
8 760 -4.649145 5.243040 1.003 
24 760 -3.326314 2.730573 1.005 
40 760 -3.975132 -3.800793 1.338 
56 760 -3.414066 -6.322768 1.005 
72 760 -1.631927 -8.228904 1.091 
88 760 -1.258493 -7.732326 1.588 
104 760 -2.536293 -1.346946 1.023 
120 760 -1.848720 1.239520 1.090 
136 760 -0.597964 1.070112 1.127 
152 760 0.083200 0.010584 1.092 
168 760 -0.700962 1.380645 2.502 
184 760 -4.037017 1.102877 2.297 
200 760 -11.212375 -4.164130 1.917 
216 760 -11.100027 -4.216002 2.904 
232 760 -3.343237 0.958450 3.919 
248 760 -2.516179 1.948304 2.513 
264 760 -2.775578 2.442649 1.396 
280 760 -2.458299 2.423355 1.047 
296 760 -2.388500 2.391028 1.554 
312 760 -2.900813 2.611352 1.624 
328 760 -2.557373 2.715737 2.004 
344 760 -1.813000 2.901064 2.313 
360 760 -1.675013 2.875979 2.745 
376 760 -1.457003 3.013801 2.499 
392 760 -1.544494 3.620926 2.311 
408 760 -1.904227 2.990630 1.965 
424 760 -2.471371 2.186858 4.629 
440 760 -2.663678 1.712029 6.281 
456 760 -2.363352 1.644080 2.939 
472 760 -2.334607 1.515933 3.525 
488 760 -2.588893 1.327550 3.093 
504 760 -2.991201 1.017201 2.687 
520 760 -3.606935 0.727315 2.366 
536 760 -3.913686 0.902683 3.572 
552 760 -3.438955 0.836717 3.361 
568 760 -3.169797 0.892154 2.633 
584 760 -3.159350 1.449044 4.288 
600 760 -2.923204 2.047724 2.021 
616 760 -2.766192 1.813413 3.270 
632 760 -2.885128 1.708926 4.028 
648 760 -3.306799 1.607430 2.702 
664 760 -3.976056 1.644615 3.308 
680 760 -3.989336 1.967157 3.339 
696 760 -3.843571 2.084503 5.636 
712 760 -3.483982 2.282131 4.042 
728 760 -3.110190 2.266410 4.834 
744 760 -2.892172 2.245923 7.744 
760 760 -2.770094 2.350144 16.492 
776 760 -2.833400 2.567291 1.383 
792 760 -2.992800 2.463142 1.836 
808 760 -3.432325 0.731032 2.753 
824 760 -2.901625 -0.544461 4.576 
840 760 -3.624470 -1.508067 4.075 
856 760 -4.208913 -1.463795 3.064 
872 760 -4.565957 -1.677623 2.178 
888 760 -4.423110 -1.598220 2.653 
904 760 -4.181373 -1.487519 1.690 
920 760 -4.326029 -1.673174 3.089 
936 760 -4.250413 -1.510900 3.311 
952 760 -4.449772 -1.392783 3.343 
968 760 -4.740919 -1.549944 3.425 
984 760 -4.604827 -1.769455 2.116 
1000 760 -4.276818 -1.692018 3.339 
1016 760 -4.092964 -1.287839 2.527 
1032 760 -4.363368 -0.785920 1.719 
1048 760 -3.914606 -0.795614 2.119 
1064 760 -3.848194 -1.249532 2.475 
1080 760 -3.745387 -2.024326 2.359 
1096 760 -3.876059 -2.261668 2.655 
1112 760 -3.705378 -2.203633 2.141 
1128 760 -2.506775 -1.683440 1.656 
1144 760 -0.433469 -1.966539 1.052 
1160 760 3.685820 -2.654133 1.350 
1176 760 6.301021 -2.709106 1.003 
1192 760 6.939807 -1.566607 1.181 
1208 760 -0.120998 -2.913920 1.005 
1224 760 -3.666592 -6.997141 1.575 
1240 760 -3.969095 -4.555188 1.063 
1256 760 7.041537 -5.933337 1.029 
1272 760 2.943881 -10.965546 1.173 
8 744 -7.687569 6.457326 1.141 
24 744 -4.106355 2.430238 1.127 
40 744 -3.105069 -0.546780 1.198 
56 744 -2.222704 -3.956623 1.118 
72 744 1.234133 -6.617056 1.553 
88 744 3.835385 -4.990975 1.536 
104 744 1.687998 -1.704473 1.101 
120 744 -0.263644 1.253656 1.260 
136 744 0.468609 0.945130 1.075 
152 744 0.070392 1.373617 1.023 
168 744 -0.656476 2.530643 2.056 
184 744 -2.763994 2.158579 2.118 
200 744 -6.804027 -1.201973 1.498 
216 744 -6.703824 -1.614023 1.476 
232 744 -2.763134 0.874095 3.004 
248 744 -2.535029 1.394574 2.092 
264 744 -2.938661 1.369118 1.292 
280 744 -2.805609 2.042599 1.046 
296 744 -2.655794 2.633940 1.450 
312 744 -3.044890 2.953617 1.639 
328 744 -2.770788 2.784581 1.836 
344 744 -2.025655 2.881248 3.002 
360 744 -1.937554 2.692838 3.767 
376 744 -1.649356 2.827627 2.142 
392 744 -1.540431 3.073098 2.834 
408 744 -2.211508 2.670580 1.550 
424 744 -2.727215 2.020722 2.461 
440 744 -2.699218 1.804666 4.398 
456 744 -2.653935 1.779288 4.482 
472 744 -2.842702 1.619396 2.085 
488 744 -2.929196 1.346683 3.098 
504 744 -3.057829 0.946054 1.783 
520 744 -3.562997 0.463328 1.567 
536 744 -3.846355 0.645162 1.691 
552 744 -3.687525 0.664088 1.933 
568 744 -3.405207 0.775979 2.963 
584 744 -3.607391 0.972906 1.612 
600 744 -3.898943 1.286407 2.079 
616 744 -4.021812 1.661335 2.265 
632 744 -3.885800 1.318580 3.619 
648 744 -4.637434 1.360109 2.185 
664 744 -4.947844 1.873411 3.093 
680 744 -4.538165 2.536753 3.615 
696 744 -4.360522 2.761575 3.163 
712 744 -3.921719 2.930123 1.887 
728 744 -3.398940 2.698515 2.524 
744 744 -3.096952 2.524318 7.358 
760 744 -2.897875 2.458142 17.559 
776 744 -2.900446 2.473048 1.021 
792 744 -3.347342 2.246988 1.201 
808 744 -4.068673 0.709403 2.333 
824 744 -4.022124 -0.828003 1.875 
840 744 -3.938290 -1.498454 2.396 
856 744 -4.121540 -1.597698 1.302 
872 744 -4.051284 -1.443926 2.169 
888 744 -3.718839 -1.275324 1.906 
904 744 -3.670848 -1.458564 1.083 
920 744 -4.064268 -1.501485 2.102 
936 744 -4.370606 -1.587341 3.542 
952 744 -4.601847 -1.562405 1.812 
968 744 -4.707628 -1.626001 1.396 
984 744 -4.329056 -1.813003 1.861 
1000 744 -3.910343 -1.700263 2.655 
1016 744 -3.335319 -1.403237 1.515 
1032 744 -3.214942 -0.963795 1.207 
1048 744 -3.425198 -0.948677 3.983 
1064 744 -3.476317 -1.320270 3.697 
1080 744 -3.666249 -1.922054 2.937 
1096 744 -3.826909 -2.241484 2.744 
1112 744 -3.874466 -2.170612 3.508 
1128 744 -2.678035 -2.057306 2.049 
1144 744 -0.801506 -1.594681 1.389 
1160 744 -0.228205 -2.126494 1.004 
1176 744 -0.054479 -1.553794 1.044 
1192 744 -0.196627 0.907612 1.174 
1208 744 -2.793675 -0.790559 1.343 
1224 744 -4.383647 -9.402143 1.240 
1240 744 -4.734184 -6.946563 1.072 
1256 744 13.329725 -11.920843 1.187 
1272 744 17.074516 -17.206417 1.037 
8 728 -5.432948 8.829833 1.104 
24 728 -4.886396 2.129903 1.116 
40 728 -2.368431 -1.746439 1.061 
56 728 -0.326479 -3.623284 1.009 
72 728 4.100192 -5.005208 1.743 
88 728 4.803338 -2.645986 1.058 
104 728 2.712027 -0.075923 1.190 
120 728 0.652153 1.784722 1.375 
136 728 0.480575 2.024738 1.018 
152 728 -0.219001 2.108744 1.101 
168 728 -1.114911 2.624037 2.054 
184 728 -1.963941 2.543070 1.850 
200 728 -2.395679 1.760184 1.879 
216 728 -2.307622 0.987957 1.518 
232 728 -1.742118 1.420066 2.117 
248 728 -2.303176 1.465405 2.108 
264 728 -2.851579 1.330010 1.193 
280 728 -3.119132 2.229476 1.627 
296 728 -3.065135 3.076753 2.746 
312 728 -2.982519 2.942656 1.060 
328 728 -2.822781 2.718639 1.032 
344 728 -2.333972 2.482779 1.667 
360 728 -2.110432 2.370369 2.002 
376 728 -1.819828 2.626129 1.685 
392 728 -1.682164 2.810566 1.276 
408 728 -1.977190 2.564747 1.435 
424 728 -2.523168 2.024222 1.316 
440 728 -2.161428 2.227349 3.529 
456 728 -2.209906 2.067845 2.802 
472 728 -2.719410 1.595214 2.670 
488 728 -3.095843 1.378257 2.189 
504 728 -3.266858 0.966891 3.086 
520 728 -3.441323 0.251542 2.085 
536 728 -3.731516 0.525699 1.479 
552 728 -3.599725 0.892266 1.794 
568 728 -3.523246 0.913597 2.941 
584 728 -3.682803 1.072939 1.931 
600 728 -4.195718 1.197556 2.008 
616 728 -3.908472 1.251178 2.200 
632 728 -3.924089 1.184411 3.467 
648 728 -4.727835 1.258485 4.544 
664 728 -4.783433 1.975909 4.491 
680 728 -4.247244 2.727284 4.447 
696 728 -3.834006 3.094649 5.202 
712 728 -3.499975 3.301197 1.060 
728 728 -3.729039 2.958842 2.140 
744 728 -3.322185 2.532865 5.025 
760 728 -2.999642 2.279651 4.522 
776 728 -2.865504 2.319258 1.609 
792 728 -3.518767 2.051370 1.193 
808 728 -4.041204 1.087441 3.202 
824 728 -4.019410 -0.262107 2.106 
840 728 -3.737092 -1.260269 2.221 
856 728 -3.830073 -1.630860 2.473 
872 728 -3.891737 -1.357093 4.588 
888 728 -3.539919 -1.238598 1.561 
904 728 -3.821388 -1.330021 1.349 
920 728 -3.994710 -1.697561 1.909 
936 728 -4.532897 -1.630557 3.980 
952 728 -4.466505 -1.572197 1.947 
968 728 -3.952534 -1.953539 1.860 
984 728 -3.745207 -2.043705 1.280 
1000 728 -3.510312 -1.669134 1.059 
1016 728 -3.061630 -1.102486 1.043 
1032 728 -3.176680 -1.040351 1.390 
1048 728 -3.053809 -1.035521 5.122 
1064 728 -3.160862 -1.290411 3.373 
1080 728 -3.450895 -1.713473 3.932 
1096 728 -3.777760 -2.221300 1.450 
1112 728 -4.043555 -2.137591 1.530 
1128 728 -3.357583 -1.613627 1.697 
1144 728 -2.360086 -1.360781 1.302 
1160 728 -1.507811 -1.694139 1.454 
1176 728 -6.654851 -0.413145 1.277 
1192 728 -7.333061 3.381831 1.031 
1208 728 -6.135343 0.185153 1.147 
1224 728 -6.331471 -5.718979 1.121 
1240 728 -11.276998 -6.800774 1.113 
1256 728 12.238200 -19.571548 1.428 
1272 728 15.250354 -24.962916 1.144 
8 712 -1.411448 10.041875 1.047 
24 712 -0.430356 -2.040405 1.009 
40 712 1.915359 -3.098322 1.033 
56 712 1.569746 -3.289946 1.000 
72 712 2.063097 -4.163909 1.006 
88 712 2.854421 -0.891577 1.380 
104 712 1.548136 1.132238 1.016 
120 712 0.730908 1.580876 1.059 
136 712 0.051437 2.860453 1.102 
152 712 -0.622342 2.756726 1.161 
168 712 -1.633434 2.662939 2.137 
184 712 -1.738589 2.274957 1.515 
200 712 -1.464860 1.866421 2.601 
216 712 -1.334911 1.195414 3.238 
232 712 -1.740139 1.384178 1.829 
248 712 -2.419553 1.665952 2.208 
264 712 -3.428543 2.343320 1.710 
280 712 -3.556844 2.733777 2.958 
296 712 -3.388297 3.088215 3.298 
312 712 -2.920148 2.931694 3.879 
328 712 -2.722443 2.608784 5.428 
344 712 -2.475374 2.233814 3.704 
360 712 -1.982371 2.302998 2.620 
376 712 -1.770294 2.639565 1.894 
392 712 -1.601321 2.732046 1.595 
408 712 -1.541479 2.449487 8.612 
424 712 -1.550056 2.358284 4.743 
440 712 -1.453772 2.432490 3.435 
456 712 -1.849084 1.862148 2.272 
472 712 -2.416758 1.245021 1.337 
488 712 -2.970779 1.182349 1.875 
504 712 -3.385944 0.909792 1.777 
520 712 -3.593066 0.417776 1.520 
536 712 -3.386320 0.574608 1.433 
552 712 -3.479040 0.870059 1.003 
568 712 -3.411869 1.170953 1.848 
584 712 -3.396607 1.291270 1.837 
600 712 -3.227725 1.138554 3.042 
616 712 -2.838953 1.299900 1.996 
632 712 -2.962499 1.205895 4.246 
648 712 -3.287045 1.275489 2.010 
664 712 -3.492170 1.629883 2.679 
680 712 -3.656264 2.218009 2.130 
696 712 -3.456142 2.684675 3.045 
712 712 -2.896650 3.083275 2.460 
728 712 -3.022397 3.217654 3.320 
744 712 -2.958800 2.584379 3.982 
760 712 -2.781246 2.336585 4.205 
776 712 -2.682500 2.484580 2.640 
792 712 -3.203998 2.309906 2.341 
808 712 -3.425817 1.683001 1.948 
824 712 -3.432327 0.533986 2.397 
840 712 -3.335237 -0.978822 2.820 
856 712 -3.674324 -1.471577 1.834 
872 712 -3.931986 -1.226102 4.464 
888 712 -4.019783 -1.197448 2.639 
904 712 -3.971927 -1.201478 3.454 
920 712 -4.294775 -1.756904 2.987 
936 712 -4.386899 -1.597957 4.046 
952 712 -4.192877 -1.515784 4.168 
968 712 -3.793616 -1.874029 2.196 
984 712 -3.704052 -1.918895 1.479 
1000 712 -3.633031 -1.620531 1.655 
1016 712 -3.306870 -1.386983 1.483 
1032 712 -3.138418 -1.116908 1.566 
1048 712 -3.277956 -1.099760 1.778 
1064 712 -3.212399 -1.345165 2.771 
1080 712 -3.272691 -1.814276 2.722 
1096 712 -3.677019 -2.243128 1.199 
1112 712 -4.124194 -2.432255 2.136 
1128 712 -4.201209 -1.835974 1.819 
1144 712 -3.715606 -1.734928 1.038 
1160 712 -2.787418 -1.261783 1.002 
1176 712 -2.384661 -0.437137 1.054 
1192 712 -5.144669 2.433679 1.097 
1208 712 -6.711982 0.198932 2.240 
1224 712 -8.279294 -2.035814 1.056 
1240 712 -5.496015 -13.593193 1.217 
1256 712 12.842004 -24.143556 1.041 
1272 712 14.972001 -25.201882 1.102 
8 696 3.976392 11.834202 1.011 
24 696 3.685456 11.142999 1.085 
40 696 5.351889 -1.383652 1.070 
56 696 3.336554 -1.983867 1.040 
72 696 0.328818 -4.584272 1.378 
88 696 0.539554 -0.437952 1.182 
104 696 -0.598498 0.837112 1.118 
120 696 -0.272338 2.563729 1.017 
136 696 -0.312900 2.784304 1.090 
152 696 -0.787732 2.668193 1.028 
168 696 -1.536701 2.624837 2.361 
184 696 -1.498418 2.196068 1.983 
200 696 -1.293024 1.529200 3.101 
216 696 -1.850357 0.836884 2.872 
232 696 -2.582034 0.661139 1.178 
248 696 -2.984519 1.162442 1.680 
264 696 -3.430930 2.165366 1.501 
280 696 -3.661836 2.377344 1.015 
296 696 -3.428234 2.464750 1.452 
312 696 -2.973526 2.582749 2.864 
328 696 -2.664827 2.740344 4.195 
344 696 -2.122715 2.375615 2.917 
360 696 -1.677722 2.336447 3.021 
376 696 -1.679575 2.387711 2.008 
392 696 -1.418259 2.304648 2.735 
408 696 -1.163501 2.068059 5.448 
424 696 -1.150847 2.220093 2.692 
440 696 -1.373791 1.858669 2.246 
456 696 -1.984254 1.138540 2.715 
472 696 -2.420427 0.963989 1.624 
488 696 -2.827726 1.132129 1.779 
504 696 -3.320958 0.910810 1.082 
520 696 -3.593536 0.633835 1.117 
536 696 -3.128214 0.554931 1.329 
552 696 -3.137088 1.053353 1.008 
568 696 -3.132241 1.309891 2.899 
584 696 -3.121080 1.336134 1.905 
600 696 -2.967391 1.256149 2.401 
616 696 -2.814695 1.203184 1.941 
632 696 -2.855489 1.013654 2.891 
648 696 -2.896413 1.069883 2.945 
664 696 -3.127666 1.059323 2.419 
680 696 -3.173478 1.098032 2.926 
696 696 -2.920250 1.689686 2.458 
712 696 -2.380658 2.590445 2.192 
728 696 -2.403358 2.925094 3.683 
744 696 -2.565581 2.778906 2.316 
760 696 -2.401092 2.612884 1.885 
776 696 -2.368938 2.632999 4.353 
792 696 -2.376106 2.401645 2.593 
808 696 -2.363622 1.867461 2.596 
824 696 -2.695009 1.081861 2.644 
840 696 -2.809990 -0.768858 1.561 
856 696 -3.380416 -1.592193 1.467 
872 696 -3.861800 -1.247486 3.589 
888 696 -4.349763 -1.105179 2.977 
904 696 -4.618775 -1.068416 1.435 
920 696 -4.562033 -1.384641 3.343 
936 696 -4.571738 -1.602747 2.974 
952 696 -4.456682 -1.613685 2.778 
968 696 -4.118573 -1.683807 2.805 
984 696 -3.916915 -1.781366 2.823 
1000 696 -3.764885 -1.663898 2.578 
1016 696 -3.552109 -1.671480 1.674 
1032 696 -3.337560 -1.597232 2.449 
1048 696 -3.338233 -1.489602 2.188 
1064 696 -3.231079 -1.505125 3.719 
1080 696 -3.283454 -1.865192 2.167 
1096 696 -3.819236 -2.364926 2.170 
1112 696 -4.030077 -2.830255 1.653 
1128 696 -4.105303 -2.684253 3.445 
1144 696 -3.959536 -2.015026 2.317 
1160 696 -3.192280 -1.643525 1.527 
1176 696 -3.219216 -0.977073 1.851 
1192 696 -4.634856 0.165011 1.332 
1208 696 -6.487573 -2.584178 1.033 
1224 696 -8.340290 -5.333366 1.027 
1240 696 0.629292 -18.697300 1.232 
1256 696 13.666518 -26.264428 1.061 
1272 696 14.693647 -25.440848 1.124 
8 680 2.702841 2.682538 1.103 
24 680 2.078079 2.945193 1.191 
40 680 8.788420 0.331019 1.073 
56 680 5.103361 -0.677788 1.031 
72 680 0.147252 -3.140871 1.096 
88 680 -1.008257 -0.492844 1.009 
104 680 -1.603413 1.750370 1.008 
120 680 -1.279986 3.339398 2.323 
136 680 -0.677238 2.708156 1.880 
152 680 -0.953123 2.579660 1.653 
168 680 -1.612490 2.362306 3.115 
184 680 -1.775221 1.954543 2.639 
200 680 -1.704609 1.179019 1.881 
216 680 -2.079816 0.913068 2.004 
232 680 -2.420059 0.836838 1.113 
248 680 -2.747863 1.170660 1.084 
264 680 -3.104651 1.654683 2.827 
280 680 -3.602676 1.877908 1.472 
296 680 -3.570821 1.871477 1.622 
312 680 -3.053223 2.545351 2.363 
328 680 -2.357706 2.750338 3.183 
344 680 -1.593437 2.463531 2.896 
360 680 -1.378437 2.262572 1.452 
376 680 -1.275372 2.254872 3.017 
392 680 -1.215042 1.866105 2.439 
408 680 -1.021717 1.587125 3.036 
424 680 -1.065439 1.914957 2.913 
440 680 -1.731215 1.214238 1.981 
456 680 -2.129697 0.813316 1.759 
472 680 -2.380957 0.883450 2.213 
488 680 -2.771404 1.485416 2.950 
504 680 -3.141546 1.162003 1.041 
520 680 -3.287888 0.742069 2.151 
536 680 -3.009105 0.690956 1.445 
552 680 -2.868934 1.144687 1.708 
568 680 -2.842186 1.299379 4.244 
584 680 -2.978410 1.215731 1.724 
600 680 -3.100789 1.108204 1.911 
616 680 -3.288137 0.887047 1.545 
632 680 -3.326309 1.632177 2.077 
648 680 -3.316806 1.289861 4.032 
664 680 -3.220652 0.932161 3.654 
680 680 -3.138862 0.789448 2.371 
696 680 -2.509992 1.323320 2.366 
712 680 -1.970235 2.154340 2.411 
728 680 -1.784318 2.632535 2.762 
744 680 -2.029217 2.576532 3.475 
760 680 -2.229315 2.498433 1.946 
776 680 -2.110458 2.539629 2.049 
792 680 -1.730981 2.339422 2.143 
808 680 -1.756934 2.020311 2.302 
824 680 -2.123212 1.285072 2.060 
840 680 -2.558105 -0.680797 2.928 
856 680 -3.007736 -1.834541 2.787 
872 680 -3.598982 -1.777199 2.271 
888 680 -4.169690 -1.482413 1.948 
904 680 -4.519155 -1.136221 1.898 
920 680 -4.404029 -1.408044 1.967 
936 680 -4.636539 -1.696568 2.362 
952 680 -4.587795 -1.485181 2.538 
968 680 -4.072246 -1.479680 2.177 
984 680 -3.821467 -1.623037 2.023 
1000 680 -3.666555 -1.766518 2.818 
1016 680 -3.575185 -1.920541 2.623 
1032 680 -3.580965 -1.845984 1.755 
1048 680 -3.517646 -1.727098 2.083 
1064 680 -3.202869 -1.655806 2.340 
1080 680 -3.397469 -1.936575 2.114 
1096 680 -3.744725 -2.634524 1.996 
1112 680 -3.454941 -3.194284 2.985 
1128 680 -3.555402 -2.908192 4.243 
1144 680 -3.599881 -2.324199 2.690 
1160 680 -3.512548 -1.855766 1.789 
1176 680 -3.269871 -1.252561 1.654 
1192 680 -4.403830 -0.857552 1.251 
1208 680 -10.239184 0.806055 1.108 
1224 680 -11.028078 -2.666822 1.562 
1240 680 11.471186 -9.133526 1.082 
1256 680 19.698658 -20.680859 1.101 
1272 680 14.415294 -25.679814 1.134 
8 664 1.429291 -6.469126 1.025 
24 664 0.470703 -5.252613 1.019 
40 664 8.385175 6.493873 1.107 
56 664 5.898906 6.081024 1.092 
72 664 1.820392 4.444820 1.039 
88 664 -0.372663 4.631795 1.137 
104 664 -1.360823 3.542446 1.771 
120 664 -1.123130 3.144915 2.621 
136 664 -0.877344 2.386639 1.827 
152 664 -0.986457 1.912628 2.817 
168 664 -1.461737 2.254408 1.311 
184 664 -1.650688 1.910220 2.076 
200 664 -1.805848 1.031965 1.864 
216 664 -1.967399 1.218193 2.201 
232 664 -1.909908 1.292719 1.850 
248 664 -2.125390 1.414553 2.077 
264 664 -2.651818 1.715584 1.959 
280 664 -3.355769 1.420774 1.596 
296 664 -3.530346 1.609656 1.398 
312 664 -3.273067 2.090015 2.992 
328 664 -2.494947 2.448594 1.211 
344 664 -1.690885 2.474993 1.145 
360 664 -1.262715 2.205213 2.160 
376 664 -1.594103 2.209912 2.565 
392 664 -1.593345 1.372740 2.536 
408 664 -1.736820 1.101902 2.836 
424 664 -1.635720 1.285470 2.398 
440 664 -2.210063 0.948574 1.750 
456 664 -2.426852 0.785257 1.375 
472 664 -2.484292 1.445064 2.597 
488 664 -2.725381 1.803423 2.107 
504 664 -2.914668 1.341560 2.541 
520 664 -3.064236 0.747622 3.598 
536 664 -3.089454 0.857330 1.479 
552 664 -3.289153 1.257882 1.700 
568 664 -3.481284 1.346696 2.749 
584 664 -3.230845 1.160243 3.261 
600 664 -3.363048 1.009380 2.823 
616 664 -3.401241 1.110571 2.594 
632 664 -3.542404 1.635224 3.202 
648 664 -3.433502 1.775261 2.987 
664 664 -3.160236 1.395350 3.980 
680 664 -3.088015 1.012677 2.133 
696 664 -2.597973 1.269074 1.902 
712 664 -2.027374 1.696338 1.465 
728 664 -1.679253 2.124265 2.633 
744 664 -1.739932 2.427526 2.344 
760 664 -1.885568 2.650066 1.979 
776 664 -1.848251 2.717119 1.867 
792 664 -1.592710 2.274582 1.185 
808 664 -1.943871 1.744099 2.548 
824 664 -2.410104 0.857124 2.238 
840 664 -3.060843 -0.788297 1.911 
856 664 -3.141255 -1.830556 1.902 
872 664 -3.179898 -2.090501 2.303 
888 664 -3.459841 -1.837624 1.598 
904 664 -3.636077 -1.690313 1.662 
920 664 -3.795486 -1.649756 2.410 
936 664 -4.041406 -1.750398 2.121 
952 664 -4.188517 -1.502894 2.277 
968 664 -3.953347 -1.317008 2.123 
984 664 -3.806633 -1.518219 2.843 
1000 664 -3.637734 -1.796300 3.245 
1016 664 -3.538684 -1.877231 1.579 
1032 664 -3.591434 -1.819113 2.683 
1048 664 -3.744990 -1.700795 2.915 
1064 664 -3.461405 -1.574786 1.776 
1080 664 -3.626885 -1.947997 2.977 
1096 664 -3.682256 -2.676195 2.365 
1112 664 -3.131971 -3.033071 2.402 
1128 664 -2.899977 -2.916976 1.715 
1144 664 -3.190619 -2.505136 1.727 
1160 664 -3.064356 -1.654797 2.036 
1176 664 -2.684923 -1.158896 1.981 
1192 664 -3.719766 -0.591995 2.234 
1208 664 -6.158251 -0.000609 5.616 
1224 664 -12.135356 -2.353286 1.307 
1240 664 12.637839 -7.596738 1.073 
1256 664 19.299252 -14.834436 1.018 
1272 664 14.136940 -25.918780 1.038 
8 648 29.758925 -9.177143 1.153 
24 648 14.703070 4.347540 1.122 
40 648 8.148768 12.333029 1.235 
56 648 9.064925 7.560229 1.142 
72 648 4.788339 6.618082 1.012 
88 648 1.909422 3.758425 1.211 
104 648 -0.504230 3.947412 1.368 
120 648 -0.977569 3.349663 3.120 
136 648 -0.942219 2.005556 2.309 
152 648 -0.896712 1.888355 3.600 
168 648 -0.758499 2.085315 2.246 
184 648 -1.058113 2.043310 1.124 
200 648 -1.420322 1.396983 2.453 
216 648 -1.195690 1.461321 3.644 
232 648 -1.263583 1.373526 2.011 
248 648 -1.745915 1.543599 1.360 
264 648 -2.484111 1.759134 1.719 
280 648 -3.173827 1.474176 2.844 
296 648 -3.426437 1.378316 2.170 
312 648 -3.220734 1.604581 2.070 
328 648 -2.598361 2.166152 1.004 
344 648 -1.864748 2.485337 1.299 
360 648 -1.631604 2.528888 1.075 
376 648 -2.295813 2.180911 3.404 
392 648 -2.746932 1.428176 2.234 
408 648 -2.592404 0.806773 2.476 
424 648 -2.378883 0.882236 2.510 
440 648 -2.876045 0.934903 4.209 
456 648 -2.917379 0.967767 2.682 
472 648 -2.634912 1.630504 2.907 
488 648 -2.644372 1.436687 1.892 
504 648 -2.830207 0.962699 3.757 
520 648 -3.132281 0.658175 1.693 
536 648 -3.465096 0.891658 2.720 
552 648 -3.940411 1.278412 2.179 
568 648 -4.008701 1.506517 3.574 
584 648 -3.769139 1.732146 2.276 
600 648 -3.731414 1.640965 2.143 
616 648 -3.811888 1.593887 1.192 
632 648 -3.758499 1.638270 2.537 
648 648 -3.474584 1.583678 3.175 
664 648 -3.230373 1.526606 3.502 
680 648 -2.951684 1.493121 3.627 
696 648 -2.567505 1.395401 2.403 
712 648 -2.190940 1.469500 1.767 
728 648 -1.847836 1.874245 3.599 
744 648 -1.701936 2.470888 2.449 
760 648 -1.690981 2.933479 3.236 
776 648 -1.694657 2.867033 2.655 
792 648 -1.794314 2.187520 2.126 
808 648 -2.360138 1.399976 2.689 
824 648 -2.943258 0.378577 2.570 
840 648 -3.066262 -0.697034 2.326 
856 648 -3.085078 -1.790040 2.465 
872 648 -2.991878 -2.265416 3.370 
888 648 -2.918962 -2.091022 2.088 
904 648 -2.926706 -1.917711 2.588 
920 648 -2.968779 -1.838757 2.563 
936 648 -3.287879 -1.724918 1.002 
952 648 -3.716665 -1.553752 2.202 
968 648 -3.708307 -1.396366 2.432 
984 648 -3.577345 -1.703623 2.737 
1000 648 -3.334519 -1.999018 3.325 
1016 648 -3.213302 -1.848947 1.030 
1032 648 -3.601903 -1.792242 2.452 
1048 648 -3.570316 -1.814517 3.365 
1064 648 -3.488711 -1.694077 1.971 
1080 648 -3.682921 -2.071038 3.681 
1096 648 -3.357555 -2.619046 2.755 
1112 648 -2.887799 -2.599980 3.719 
1128 648 -2.883753 -2.400525 1.523 
1144 648 -2.895517 -1.994764 2.136 
1160 648 -2.533645 -1.498138 2.071 
1176 648 -2.233836 -0.907201 2.810 
1192 648 -2.314628 -0.452549 2.699 
1208 648 -4.268534 -0.566119 1.822 
1224 648 -6.661328 -1.747634 1.128 
1240 648 2.681884 -10.925878 1.080 
1256 648 1.614176 -26.424837 1.094 
1272 648 8.036667 -26.196192 1.210 
8 632 29.608605 10.704096 1.085 
24 632 28.124052 11.413145 1.040 
40 632 15.685540 10.106776 1.209 
56 632 12.230944 9.039434 1.007 
72 632 8.053828 6.983060 1.078 
88 632 4.191507 2.885055 1.338 
104 632 0.671193 3.425707 1.206 
120 632 -0.818436 3.034037 1.081 
136 632 -0.999602 2.033978 2.406 
152 632 -0.806968 1.864081 1.592 
168 632 -0.664302 1.989099 2.295 
184 632 -0.756087 1.964093 4.635 
200 632 -1.105636 1.406662 4.324 
216 632 -0.975948 1.197894 1.578 
232 632 -0.742277 1.304032 1.951 
248 632 -1.425708 1.609647 1.248 
264 632 -2.369371 1.813780 1.125 
280 632 -3.033837 1.370311 1.450 
296 632 -2.998520 1.008214 1.806 
312 632 -3.061874 1.275513 4.555 
328 632 -2.656532 1.870084 2.235 
344 632 -2.026047 2.330718 1.118 
360 632 -1.816660 2.391764 1.386 
376 632 -1.889752 2.183981 3.071 
392 632 -2.168663 1.630157 1.857 
408 632 -3.211253 1.064645 1.775 
424 632 -3.248659 0.961050 1.864 
440 632 -3.182030 0.860047 2.896 
456 632 -3.069255 1.058566 2.740 
472 632 -2.814629 1.213576 1.587 
488 632 -2.733493 1.190049 1.042 
504 632 -2.863596 0.890888 1.449 
520 632 -3.383409 0.701456 1.903 
536 632 -3.816951 0.840036 5.519 
552 632 -4.040218 1.213343 5.167 
568 632 -4.229746 1.588682 3.061 
584 632 -3.978789 2.027784 2.339 
600 632 -4.003505 1.988663 1.369 
616 632 -4.110213 2.057348 2.435 
632 632 -3.940268 1.998270 3.309 
648 632 -3.693067 1.571901 3.062 
664 632 -3.125266 1.591566 3.059 
680 632 -2.672665 1.610197 2.929 
696 632 -2.678123 1.435131 2.366 
712 632 -2.486191 1.580841 2.540 
728 632 -2.184809 1.961696 3.706 
744 632 -1.670054 2.557423 2.928 
760 632 -1.585251 2.822784 1.488 
776 632 -1.703068 2.654953 1.295 
792 632 -2.138342 2.077053 2.209 
808 632 -2.887652 1.157981 2.718 
824 632 -2.996891 0.294159 3.755 
840 632 -3.108172 -0.687101 3.138 
856 632 -3.000535 -1.628667 2.848 
872 632 -2.867253 -2.154902 3.165 
888 632 -2.544479 -2.098970 2.164 
904 632 -2.160756 -1.683504 2.941 
920 632 -2.133043 -1.296473 2.577 
936 632 -2.316490 -1.157567 1.056 
952 632 -2.800303 -1.182706 2.446 
968 632 -2.904822 -1.263556 1.755 
984 632 -2.654369 -1.900991 2.003 
1000 632 -2.591979 -2.087478 1.852 
1016 632 -2.848149 -1.684994 1.802 
1032 632 -3.217139 -1.800833 1.007 
1048 632 -3.445572 -1.913498 1.107 
1064 632 -3.426643 -1.771844 1.148 