TITLE = "B00809"
VARIABLES = "x", "y", "u", "v", "sn"
ZONE T="Frame 0", I=107, J=67
6 798 7.669143 0.879470 1.083 
18 798 4.305890 1.084041 1.015 
30 798 0.942637 1.288611 1.021 
42 798 0.192545 2.658229 1.092 
54 798 -0.557547 4.027848 1.000 
66 798 -1.307640 5.397466 1.182 
78 798 -2.389750 6.712251 1.102 
90 798 -2.541687 7.458484 2.015 
102 798 -2.205703 6.798705 1.189 
114 798 -1.869718 6.138927 1.014 
126 798 -1.533733 5.479149 1.708 
138 798 -1.300272 4.803963 1.267 
150 798 -1.579770 -2.665698 1.047 
162 798 -5.419691 -1.319599 1.228 
174 798 -9.259612 0.026500 1.007 
186 798 -8.508312 2.778630 1.427 
198 798 -7.757013 5.530761 1.545 
210 798 -7.816973 4.838878 1.520 
222 798 -7.876933 4.146996 1.933 
234 798 -7.936893 3.455114 2.669 
246 798 -7.881109 3.329727 2.735 
258 798 -8.013605 3.476995 1.863 
270 798 -8.146101 3.624263 1.435 
282 798 -8.011436 3.911337 2.345 
294 798 -7.876770 4.198411 2.497 
306 798 -9.750198 3.866950 2.145 
318 798 -11.623625 3.535489 1.044 
330 798 -8.291617 4.985351 1.803 
342 798 -7.981472 4.887198 1.110 
354 798 -8.343451 4.313995 1.191 
366 798 -8.499631 4.101047 2.260 
378 798 -8.586481 4.165032 1.252 
390 798 -8.413862 4.540625 4.107 
402 798 -8.134617 4.235583 2.143 
414 798 -7.979513 3.884250 1.719 
426 798 -7.815808 3.564968 1.505 
438 798 -7.667801 3.136222 2.588 
450 798 -7.712797 2.970237 4.603 
462 798 -8.335743 3.759547 1.781 
474 798 -8.959704 4.265099 1.517 
486 798 -9.583665 4.770651 1.451 
498 798 -10.207626 5.276203 1.224 
510 798 -9.365894 5.163102 2.207 
522 798 -8.524162 5.050002 1.933 
534 798 -8.519350 5.085266 1.256 
546 798 -8.522365 5.698117 1.675 
558 798 -8.525380 6.310968 1.077 
570 798 -7.763931 6.288217 1.774 
582 798 -8.226535 6.500826 1.800 
594 798 -8.689140 6.713434 1.401 
606 798 -9.151744 6.926043 1.117 
618 798 -9.136880 6.623346 1.305 
630 798 -9.122016 6.320649 1.079 
642 798 -9.107151 6.017953 7.677 
654 798 -7.906615 6.132170 4.168 
666 798 -6.706078 6.246388 2.018 
678 798 -5.934170 6.010125 1.989 
690 798 -5.636746 5.466213 4.058 
702 798 -6.287534 4.368992 2.625 
714 798 -6.075618 3.169107 1.254 
726 798 -5.783130 3.343797 1.432 
738 798 -6.570301 4.455294 1.272 
750 798 -6.859617 4.268542 1.449 
762 798 -7.148932 4.081791 1.752 
774 798 -6.494978 3.200738 1.463 
786 798 -7.311532 2.586414 1.367 
798 798 -8.128086 1.972091 1.178 
810 798 -8.944641 1.357767 1.631 
822 798 -7.825411 0.144324 1.153 
834 798 -7.495682 -0.372377 2.162 
846 798 -7.165953 -0.889079 2.335 
858 798 -7.523053 -1.112016 1.936 
870 798 -7.120765 -0.722662 1.619 
882 798 -6.718477 -0.333308 1.255 
894 798 -5.371620 0.501720 1.289 
906 798 -4.024763 1.336748 1.628 
918 798 -3.095258 2.559131 1.015 
930 798 -3.064197 2.525523 1.040 
942 798 -3.033137 2.491916 4.589 
954 798 -3.002076 2.458308 12.528 
966 798 -3.980349 3.439794 4.501 
978 798 -4.463152 4.306261 1.678 
990 798 -4.457397 4.769627 2.186 
1002 798 -4.425475 4.294163 1.810 
1014 798 -4.273823 3.302936 1.440 
1026 798 -4.431687 2.104910 1.989 
1038 798 -4.589551 0.906885 1.851 
1050 798 -13.193809 -4.024031 1.965 
1062 798 -10.962705 -3.538063 1.022 
1074 798 -8.731600 -3.052096 1.032 
1086 798 -6.500495 -2.566129 1.015 
1098 798 -4.269390 -2.080162 1.839 
1110 798 -2.664930 -3.195006 2.819 
1122 798 -1.060471 -4.309849 1.959 
1134 798 1.584569 -4.399270 1.000 
1146 798 4.229609 -4.488690 1.316 
1158 798 6.874649 -4.578110 1.312 
1170 798 13.204717 -3.392929 1.037 
1182 798 12.013213 -5.291735 1.022 
1194 798 10.821708 -7.190540 1.046 
1206 798 6.293252 -10.903107 1.240 
1218 798 5.343960 -10.868400 1.013 
1230 798 4.394668 -10.833693 1.313 
1242 798 4.741414 -6.471980 1.091 
1254 798 5.088161 -2.110266 1.138 
1266 798 5.155294 0.685969 1.074 
1278 798 0.000000 -0.000000 1.074 
6 786 6.013809 0.618410 1.088 
18 786 2.628122 0.474377 1.012 
30 786 0.186325 0.255419 1.027 
42 786 0.261560 0.721388 1.101 
54 786 1.073584 0.932342 1.073 
66 786 1.243759 1.027959 1.232 
78 786 -0.815874 2.936176 1.079 
90 786 -1.458215 5.151716 1.899 
102 786 -1.653288 9.606413 1.156 
114 786 -1.788187 7.300944 1.185 
126 786 -1.923086 4.995474 1.677 
138 786 -2.175359 4.491533 1.136 
150 786 -2.825294 -2.781229 1.012 
162 786 -9.549238 0.275397 1.213 
174 786 -10.094057 0.428257 1.014 
186 786 -8.450784 2.900312 1.488 
198 786 -8.960554 5.331360 1.582 
210 786 -8.746889 4.790897 1.490 
222 786 -8.897832 4.348672 2.044 
234 786 -9.048775 3.906447 3.003 
246 786 -8.749531 3.610843 3.010 
258 786 -8.597726 3.567293 1.863 
270 786 -8.583005 3.755659 1.435 
282 786 -8.069407 4.371581 2.436 
294 786 -8.055099 4.390045 2.621 
306 786 -9.107622 4.374699 2.267 
318 786 -10.160146 4.359352 1.053 
330 786 -8.066972 5.373120 1.870 
342 786 -7.995940 5.161294 1.004 
354 786 -8.539825 4.573857 1.318 
366 786 -8.697571 4.387948 2.293 
378 786 -8.733246 4.403048 1.370 
390 786 -8.517790 4.656034 4.376 
402 786 -8.242926 4.428036 2.296 
414 786 -8.060812 4.139175 1.753 
426 786 -7.943001 3.829275 1.544 
438 786 -7.841440 3.219529 2.748 
450 786 -8.180470 2.762864 4.658 
462 786 -8.643912 3.107147 1.730 
474 786 -9.328986 3.394999 1.462 
486 786 -10.007931 3.419319 1.843 
498 786 -10.670360 3.657654 1.385 
510 786 -9.230580 4.386823 2.384 
522 786 -8.885489 4.151409 1.833 
534 786 -8.717556 4.508825 1.283 
546 786 -8.692577 4.674712 1.695 
558 786 -8.667598 4.840599 1.066 
570 786 -7.859173 4.952071 2.159 
582 786 -7.050869 6.155437 2.370 
594 786 -7.022324 6.755359 1.426 
606 786 -8.506724 5.677518 1.024 
618 786 -9.453257 5.370337 1.234 
630 786 -9.010353 5.798680 1.491 
642 786 -8.482217 6.231853 7.219 
654 786 -7.583313 6.331582 4.124 
666 786 -6.684409 6.431311 2.159 
678 786 -6.172958 6.127295 2.025 
690 786 -5.874984 5.706842 3.346 
702 786 -6.429212 4.650737 2.541 
714 786 -5.937684 3.402058 1.244 
726 786 -5.675409 3.501637 1.428 
738 786 -6.279876 4.655326 1.168 
750 786 -6.017844 4.583650 1.424 
762 786 -5.755812 4.511975 1.698 
774 786 -4.913686 3.756166 1.596 
786 786 -5.884581 3.303755 1.415 
798 786 -6.275912 2.937137 1.171 
810 786 -6.667243 2.570518 1.410 
822 786 -5.616990 1.381656 2.398 
834 786 -5.204897 0.617796 2.520 
846 786 -6.498133 0.525461 2.250 
858 786 -6.881954 -0.148787 1.884 
870 786 -7.315220 -0.421617 1.624 
882 786 -7.199247 0.731826 1.118 
894 786 -5.950827 1.625150 1.416 
906 786 -3.993771 1.619432 1.812 
918 786 -2.979945 2.009480 1.078 
930 786 -2.692458 2.352117 1.010 
942 786 -2.870365 1.803438 3.214 
954 786 -3.195499 2.550366 6.840 
966 786 -4.099004 3.564586 4.193 
978 786 -4.436661 4.618769 5.589 
990 786 -4.493954 5.200301 2.449 
1002 786 -4.246832 4.551114 2.400 
1014 786 -4.209524 3.336664 1.431 
1026 786 -3.382514 2.107800 1.876 
1038 786 -4.033321 1.032567 1.764 
1050 786 -5.752223 -2.193824 1.899 
1062 786 -7.471124 -5.420216 1.087 
1074 786 -5.262637 -3.087243 1.113 
1086 786 -3.054149 -0.754271 1.055 
1098 786 -1.726966 -1.317102 1.853 
1110 786 -0.430180 -2.276700 3.125 
1122 786 1.471546 -3.608125 1.925 
1134 786 0.879499 -3.516839 1.034 
1146 786 5.081634 -2.750830 1.372 
1158 786 9.283768 -1.984821 1.411 
1170 786 11.925533 -0.230908 1.076 
1182 786 12.491990 -1.077072 1.046 
1194 786 8.398523 -4.975112 1.068 
1206 786 4.051655 -8.988224 1.282 
1218 786 2.174203 -10.821378 1.012 
1230 786 1.947552 -9.318076 1.262 
1242 786 2.961022 -5.125677 1.197 
1254 786 2.902381 -1.324215 1.100 
1266 786 3.987952 0.839615 1.090 
1278 786 5.509807 -0.457963 1.090 
6 774 -1.246181 -0.872816 1.170 
18 774 -0.600455 -0.944021 1.206 
30 774 0.798812 -0.696302 1.851 
42 774 1.051827 -0.387085 1.349 
54 774 1.563792 0.039999 1.611 
66 774 1.410117 -0.153282 1.491 
78 774 0.299522 1.106822 1.278 
90 774 0.358082 0.788246 1.469 
102 774 -0.037536 1.947112 1.405 
114 774 -1.179711 3.550362 1.241 
126 774 -1.983328 3.511240 1.612 
138 774 -3.027476 3.108424 1.122 
150 774 -3.443904 1.404512 1.087 
162 774 -7.099804 1.900430 1.027 
174 774 -9.351656 3.472599 1.729 
186 774 -7.527632 2.518368 1.003 
198 774 -9.039545 3.946821 2.702 
210 774 -9.487758 3.981371 1.253 
222 774 -9.736765 4.051034 1.359 
234 774 -9.572392 3.870098 2.222 
246 774 -9.196958 3.673302 4.007 
258 774 -8.896657 3.747334 1.919 
270 774 -8.815921 3.974556 2.093 
282 774 -8.431854 4.436022 4.175 
294 774 -8.318137 4.463853 2.887 
306 774 -9.051584 4.445498 1.810 
318 774 -8.900180 5.076368 3.299 
330 774 -8.446910 5.822803 1.802 
342 774 -8.409014 5.562451 3.554 
354 774 -8.730303 5.266938 2.543 
366 774 -8.657434 4.998136 2.000 
378 774 -8.682211 4.993995 1.095 
390 774 -8.535538 5.061149 3.510 
402 774 -8.213747 4.895602 2.398 
414 774 -7.960685 4.077708 1.064 
426 774 -7.976010 4.676187 1.100 
438 774 -8.004518 3.737041 1.161 
450 774 -8.472814 2.825060 1.433 
462 774 -9.871829 2.647044 2.479 
474 774 -10.963306 2.731016 5.244 
486 774 -11.190686 3.032282 12.760 
498 774 -10.561707 2.827880 4.177 
510 774 -9.541509 2.897203 4.077 
522 774 -8.694004 3.290966 1.368 
534 774 -8.706752 3.958847 2.064 
546 774 -8.219292 3.929753 1.816 
558 774 -8.199644 3.602499 3.348 
570 774 -7.587898 3.547582 3.357 
582 774 -6.923421 4.083188 2.973 
594 774 -6.986244 4.123712 1.732 
606 774 -7.473860 4.163324 1.602 
618 774 -7.873785 4.449104 1.184 
630 774 -7.418352 5.380040 1.430 
642 774 -7.048399 6.163401 2.703 
654 774 -7.012734 6.171685 7.975 
666 774 -6.399974 6.049386 1.245 
678 774 -6.677274 6.165358 1.647 
690 774 -6.802948 5.943352 2.750 
702 774 -6.197227 4.767904 1.540 
714 774 -6.459187 4.092872 1.436 
726 774 -5.940221 4.151892 1.325 
738 774 -6.476311 4.983287 1.147 
750 774 -6.647335 5.552441 1.532 
762 774 -5.381697 4.606034 2.276 
774 774 -4.743575 4.182875 2.483 
786 774 -4.882853 3.773390 1.151 
798 774 -5.445176 3.529391 1.570 
810 774 -6.007498 3.285392 1.188 
822 774 -5.726752 2.081750 1.923 
834 774 -5.534134 1.654505 1.007 
846 774 -6.478401 1.674943 1.091 
858 774 -6.827306 0.455360 1.818 
870 774 -6.911756 0.568756 1.962 
882 774 -7.280658 1.793268 1.013 
894 774 -6.135402 2.468051 2.612 
906 774 -4.345482 2.011807 3.016 
918 774 -2.986223 0.751516 2.157 
930 774 -2.908643 0.618703 5.772 
942 774 -3.531531 1.612293 2.151 
954 774 -3.800876 2.536320 1.682 
966 774 -4.217873 3.649626 2.007 
978 774 -4.631471 4.694788 7.111 
990 774 -4.619552 5.060018 8.085 
1002 774 -4.068190 4.808064 9.485 
1014 774 -3.722751 3.407176 1.962 
1026 774 -3.212868 1.985699 1.214 
1038 774 -2.686358 0.988805 1.021 
1050 774 -3.577414 -0.721951 1.159 
1062 774 -4.468470 -2.432708 1.265 
1074 774 -3.110564 -1.253540 1.330 
1086 774 -1.752659 -0.074373 3.457 
1098 774 -0.753002 -0.510792 2.028 
1110 774 0.189560 -1.195085 1.059 
1122 774 1.618271 -1.877161 2.511 
1134 774 1.801101 -2.599923 1.146 
1146 774 2.819469 -2.723828 1.005 
1158 774 4.519641 -1.361645 1.024 
1170 774 7.712274 1.529616 1.006 
1182 774 7.743711 0.162905 1.095 
1194 774 5.521926 -0.097438 1.030 
1206 774 2.438594 -6.724743 1.606 
1218 774 0.970473 -6.173426 1.360 
1230 774 0.608397 -5.363031 1.850 
1242 774 0.029242 -2.247317 1.818 
1254 774 -1.250987 2.156777 1.093 
1266 774 2.829551 2.350958 1.526 
1278 774 5.373566 0.124764 1.526 
6 762 4.750530 -2.024857 1.032 
18 762 2.308221 -1.616869 1.065 
30 762 2.910993 -1.598744 1.358 
42 762 2.848764 -1.060664 1.172 
54 762 1.368213 -1.117398 1.539 
66 762 1.387810 -0.518288 1.229 
78 762 1.414918 -0.722532 1.206 
90 762 1.449268 -0.090974 1.539 
102 762 1.051811 1.099877 1.510 
114 762 -0.272827 1.359828 1.124 
126 762 -1.988081 2.354389 1.450 
138 762 -3.266193 1.482614 1.047 
150 762 -3.186333 -0.215132 1.056 
162 762 -5.274359 1.982711 1.051 
174 762 -7.262440 1.170041 1.879 
186 762 -6.146407 -1.100834 1.801 
198 762 -7.636763 0.803838 1.069 
210 762 -7.956994 1.765351 1.020 
222 762 -9.473550 2.957933 1.441 
234 762 -9.887552 3.637663 1.550 
246 762 -9.584958 3.855945 1.734 
258 762 -8.975624 4.048755 3.650 
270 762 -8.812959 4.167581 6.567 
282 762 -8.945605 4.294864 1.406 
294 762 -8.970860 4.203241 2.194 
306 762 -8.991984 4.371148 2.029 
318 762 -8.606692 5.142238 3.397 
330 762 -8.304688 5.760465 2.122 
342 762 -8.277546 5.726424 2.390 
354 762 -8.474714 5.702431 1.990 
366 762 -8.427934 5.913402 1.082 
378 762 -8.229770 5.754340 1.145 
390 762 -7.847607 5.678694 1.870 
402 762 -7.482231 5.462217 1.072 
414 762 -7.412983 5.763136 1.073 
426 762 -7.679415 5.652725 1.227 
438 762 -7.766071 4.061240 2.164 
450 762 -8.157096 2.628302 2.972 
462 762 -8.818047 2.716267 1.564 
474 762 -11.817542 2.627531 3.032 
486 762 -12.373440 2.645246 5.138 
498 762 -10.101752 2.735351 3.726 
510 762 -9.176630 2.697664 7.335 
522 762 -8.540845 2.886305 1.990 
534 762 -8.343569 2.891025 2.579 
546 762 -7.789302 3.013640 2.125 
558 762 -7.547420 2.625263 1.903 
570 762 -7.244514 2.369387 2.216 
582 762 -6.783111 3.348838 5.180 
594 762 -6.742673 3.624633 2.022 
606 762 -6.924034 3.563856 1.982 
618 762 -6.916876 3.905171 1.790 
630 762 -5.884768 5.025994 1.744 
642 762 -4.906321 5.627816 2.807 
654 762 -5.328353 5.674375 2.858 
666 762 -5.905756 5.392218 1.057 
678 762 -6.483159 5.110061 1.053 
690 762 -6.339969 5.376728 1.322 
702 762 -5.965243 4.885070 1.149 
714 762 -5.934539 4.347328 1.791 
726 762 -5.911134 4.402407 2.580 
738 762 -6.920112 5.577238 1.585 
750 762 -6.743068 5.721275 1.539 
762 762 -5.223416 5.102501 2.368 
774 762 -5.171694 4.269177 1.395 
786 762 -5.310945 3.911443 1.142 
798 762 -5.551201 3.806853 1.046 
810 762 -5.650516 3.635407 1.096 
822 762 -5.836515 2.781844 1.207 
834 762 -5.863370 2.691214 1.006 
846 762 -6.458669 2.824425 1.142 
858 762 -5.758602 2.032519 1.347 
870 762 -3.950672 0.469970 1.110 
882 762 -3.231157 0.300952 1.165 
894 762 -6.076606 2.970961 1.480 
906 762 -5.185782 2.343921 2.669 
918 762 -3.380552 0.358483 1.627 
930 762 -3.195826 -0.077661 3.061 
942 762 -3.725830 1.050589 3.004 
954 762 -4.189552 2.091923 1.873 
966 762 -4.544205 3.135775 1.762 
978 762 -4.777445 4.190139 10.080 
990 762 -4.745149 4.919734 10.534 
1002 762 -4.570632 4.696189 4.177 
1014 762 -3.589458 3.318916 1.071 
1026 762 -3.043221 1.863598 1.357 
1038 762 -3.737701 0.708337 1.140 
1050 762 -3.149824 0.117705 1.802 
1062 762 -2.408990 0.149765 3.081 
1074 762 -1.758831 0.153256 1.842 
1086 762 -1.913401 0.072168 2.597 
1098 762 -1.299481 0.074270 3.039 
1110 762 -0.216046 -0.232780 1.958 
1122 762 0.319869 -0.524811 2.445 
1134 762 -1.112908 -1.358868 1.074 
1146 762 -2.687600 -2.252144 1.068 
1158 762 -1.430227 -1.511224 1.188 
1170 762 2.305423 1.880125 1.197 
1182 762 2.995432 1.402882 1.061 
1194 762 2.766240 1.366742 1.255 
1206 762 0.610823 -4.115640 1.050 
1218 762 -0.446141 -1.345037 1.301 
1230 762 -0.275002 -0.329986 1.218 
1242 762 -0.584472 1.730967 1.371 
1254 762 0.116994 3.451661 1.088 
1266 762 1.671150 3.862302 1.024 
1278 762 5.237326 0.707491 1.024 
6 750 10.609154 -2.363952 1.755 
18 750 6.015151 -1.586560 1.819 
30 750 5.515534 -0.501617 1.340 
42 750 3.842385 -1.191250 1.208 
54 750 1.172633 -2.274795 1.005 
66 750 -1.309491 -3.061889 1.094 
78 750 -3.031017 -3.818646 1.115 
90 750 -0.905372 -2.671299 1.251 
102 750 1.014638 -0.389200 1.017 
114 750 0.873942 0.913786 1.779 
126 750 -0.572819 1.876642 1.194 
138 750 -1.604810 0.210812 1.136 
150 750 -2.158122 -1.850014 1.125 
162 750 -3.375583 -2.044567 1.516 
174 750 -5.173223 -1.132517 1.020 
186 750 -4.738088 -4.433753 1.644 
198 750 -5.254145 -3.458958 1.045 
210 750 -6.338037 -1.043620 1.129 
222 750 -8.266616 1.798787 1.648 
234 750 -9.818815 3.413341 2.595 
246 750 -9.797003 3.999340 3.598 
258 750 -9.194889 4.030161 2.089 
270 750 -9.001847 4.111691 4.662 
282 750 -9.133851 4.268523 1.293 
294 750 -9.136476 4.264595 1.239 
306 750 -9.037192 4.466840 1.792 
318 750 -8.479061 5.402504 3.513 
330 750 -8.047937 5.587038 1.435 
342 750 -7.851633 5.481480 1.077 
354 750 -7.795650 5.597423 1.098 
366 750 -7.403379 6.590487 1.486 
378 750 -7.198949 6.684927 1.825 
390 750 -6.927505 6.479606 1.009 
402 750 -6.720267 6.118832 1.064 
414 750 -6.669917 6.252052 1.765 
426 750 -7.175899 6.007439 2.040 
438 750 -7.301203 4.430212 2.586 
450 750 -7.498940 2.640148 3.086 
462 750 -7.764265 2.785490 1.493 
474 750 -8.123713 3.544327 1.392 
486 750 -8.660359 3.485979 2.345 
498 750 -8.767112 3.581746 1.006 
510 750 -8.133141 3.432055 1.197 
522 750 -6.984624 2.820222 1.026 
534 750 -6.916113 2.618057 1.168 
546 750 -7.548208 2.698728 2.423 
558 750 -7.452978 2.506860 2.858 
570 750 -7.345807 2.657070 1.965 
582 750 -6.642815 3.243935 7.044 
594 750 -6.395715 3.453916 1.941 
606 750 -6.248492 3.356393 4.442 
618 750 -5.979189 3.970071 1.137 
630 750 -5.037675 4.725904 1.065 
642 750 -2.445040 5.801292 2.997 
654 750 -4.466963 5.725702 1.567 
666 750 -6.179107 5.134759 1.683 
678 750 -5.981585 4.150612 1.710 
690 750 -4.852113 4.873764 1.736 
702 750 -4.442172 4.554589 2.429 
714 750 -5.409891 4.601784 1.160 
726 750 -5.882047 4.652922 1.013 
738 750 -6.564875 5.390562 1.149 
750 750 -5.804907 5.118203 1.317 
762 750 -5.376788 4.968465 1.782 
774 750 -5.657726 4.001354 1.809 
786 750 -5.631633 3.442949 1.101 
798 750 -5.758491 3.322311 2.402 
810 750 -5.657187 3.333500 1.626 
822 750 -5.946277 3.481939 1.374 
834 750 -6.192607 3.727922 2.402 
846 750 -6.438937 3.973906 1.487 
858 750 -5.559060 2.427434 1.032 
870 750 -2.370358 0.618035 1.640 
882 750 0.818343 -1.191364 1.411 
894 750 -6.668655 3.689751 1.058 
906 750 -5.606208 2.425468 1.011 
918 750 -4.543762 1.161184 1.331 
930 750 -4.035312 0.121311 1.152 
942 750 -3.777500 0.582755 1.751 
954 750 -4.088637 1.354432 2.950 
966 750 -4.445528 2.011300 2.135 
978 750 -4.725104 2.746412 2.745 
990 750 -5.228717 4.039441 1.086 
1002 750 -5.233677 4.041315 1.836 
1014 750 -5.635254 3.240229 3.229 
1026 750 -5.846339 1.565560 2.927 
1038 750 -5.772188 0.129673 2.465 
1050 750 -5.167580 -0.638486 6.332 
1062 750 -4.403708 -0.994104 5.385 
1074 750 -3.845857 -0.686673 2.869 
1086 750 -3.286570 -0.646601 3.248 
1098 750 -2.478883 -0.326272 2.573 
1110 750 -1.336574 -0.239055 3.873 
1122 750 -1.227735 0.137570 1.783 
1134 750 -2.346940 0.260727 1.691 
1146 750 -3.455388 -0.603550 1.387 
1158 750 -4.563836 -1.467827 1.070 
1170 750 -1.762825 1.124997 1.000 
1182 750 -2.226102 -0.770447 1.151 
1194 750 -1.626895 -1.851407 1.077 
1206 750 -0.399985 -0.001289 1.007 
1218 750 -0.257038 1.398910 1.384 
1230 750 -0.261373 3.572483 1.503 
1242 750 0.567094 2.087167 1.033 
1254 750 3.512384 2.528509 1.087 
1266 750 7.899250 1.821870 1.122 
1278 750 12.325289 -1.473767 1.122 
6 738 10.618860 -1.198994 1.436 
18 738 9.722082 -1.556250 1.547 
30 738 8.120075 0.595510 1.024 
42 738 3.604404 -0.463259 1.031 
54 738 -0.358373 -3.367331 1.097 
66 738 -3.950368 -2.865242 1.019 
78 738 -3.553666 -4.662473 1.087 
90 738 -1.233379 -5.507653 1.248 
102 738 0.351302 -2.484828 1.077 
114 738 0.061904 1.381495 1.160 
126 738 -0.505452 1.363350 1.119 
138 738 -0.997419 -0.595719 1.114 
150 738 -0.865846 -3.232165 2.045 
162 738 -1.344740 -5.930949 1.084 
174 738 -1.823634 -8.629733 1.009 
186 738 -2.643186 -9.454542 1.439 
198 738 -3.072018 -7.622073 1.111 
210 738 -3.715808 -4.399858 1.461 
222 738 -6.631175 -0.333147 1.430 
234 738 -9.329043 3.104491 3.393 
246 738 -10.065539 3.842124 2.563 
258 738 -9.389309 4.040596 3.957 
270 738 -9.279960 3.877586 2.945 
282 738 -9.238881 4.216256 3.092 
294 738 -9.083663 4.427554 3.023 
306 738 -8.747270 4.535338 1.238 
318 738 -8.230982 5.129015 1.750 
330 738 -7.835685 5.242148 1.166 
342 738 -7.366543 4.973237 1.291 
354 738 -7.250038 5.140200 1.041 
366 738 -6.962131 6.663554 1.634 
378 738 -7.082099 7.228207 1.307 
390 738 -6.754413 7.000707 1.071 
402 738 -6.625581 6.556487 1.361 
414 738 -6.669845 6.407944 2.281 
426 738 -6.869947 6.308689 2.079 
438 738 -7.165882 4.567539 2.468 
450 738 -7.726888 2.923479 1.209 
462 738 -7.554665 1.900622 1.837 
474 738 -7.697276 3.803917 1.135 
486 738 -8.079701 3.908723 2.146 
498 738 -7.972659 4.068467 1.482 
510 738 -7.089652 4.166447 1.192 
522 738 -5.416599 2.876201 7.561 
534 738 -5.753688 2.649889 4.592 
546 738 -6.779403 2.095306 2.468 
558 738 -7.048357 2.312580 3.186 
570 738 -7.229861 2.455390 1.919 
582 738 -6.515972 2.916947 1.119 
594 738 -6.084778 3.336610 1.676 
606 738 -5.868367 3.396561 1.802 
618 738 -5.296419 3.992884 1.166 
630 738 -4.606225 4.467735 1.133 
642 738 0.016240 5.974769 1.444 
654 738 -3.605572 5.777030 1.298 
666 738 -7.227385 5.579291 1.245 
678 738 -4.677858 4.453053 1.408 
690 738 -3.805931 4.653743 1.466 
702 738 -3.787926 4.193170 2.634 
714 738 -4.820443 4.548303 1.079 
726 738 -5.852961 4.903437 1.337 
738 738 -6.246545 5.347180 1.383 
750 738 -5.829057 5.143210 1.471 
762 738 -5.530160 4.834429 1.267 
774 738 -5.835707 4.024153 1.156 
786 738 -6.029223 3.409986 1.278 
798 738 -6.221370 3.298389 2.544 
810 738 -6.123268 3.134617 1.482 
822 738 -5.889889 2.530557 1.351 
834 738 -4.814722 3.003692 1.046 
846 738 -6.667926 3.261662 1.546 
858 738 -5.312929 2.244752 1.032 
870 738 -2.026270 1.400843 1.277 
882 738 1.260390 0.556935 1.523 
894 738 -6.795621 4.776379 1.587 
906 738 -5.879664 3.301670 1.191 
918 738 -5.222420 1.721083 1.233 
930 738 -4.884463 0.488901 1.568 
942 738 -4.112082 0.723786 2.589 
954 738 -4.192297 0.766037 2.141 
966 738 -4.362812 0.918852 1.144 
978 738 -4.822303 1.918943 1.021 
990 738 -5.525464 3.126692 1.831 
1002 738 -5.660228 3.752151 2.862 
1014 738 -5.949276 2.847598 3.892 
1026 738 -5.834075 1.286309 4.176 
1038 738 -5.936844 0.095487 3.398 
1050 738 -6.108154 -0.830881 6.149 
1062 738 -5.170389 -1.113502 2.837 
1074 738 -4.747337 -0.719868 3.117 
1086 738 -4.250220 -0.638592 2.602 
1098 738 -3.271294 -0.770418 1.128 
1110 738 -2.345559 -0.378852 2.920 
1122 738 -2.183395 0.262053 4.243 
1134 738 -2.959052 0.001502 1.319 
1146 738 -4.115858 0.081861 4.032 
1158 738 -5.272664 0.162220 2.384 
1170 738 -4.259398 0.425165 2.682 
1182 738 -2.470875 -0.439805 1.145 
1194 738 -1.324862 -1.085812 1.423 
1206 738 -0.174800 0.923843 1.024 
1218 738 -0.067935 4.142858 1.286 
1230 738 0.128090 4.058128 1.095 
1242 738 1.718660 2.443368 1.149 
1254 738 6.907774 1.605357 1.163 
1266 738 14.363105 -0.076305 1.040 
1278 738 19.413252 -3.655025 1.040 
6 726 10.628566 -0.034037 1.203 
18 726 9.574241 0.432471 1.159 
30 726 6.977412 4.347198 1.245 
42 726 2.955034 1.972844 1.096 
54 726 -3.933180 -0.861980 1.138 
66 726 -6.591245 -2.668595 1.019 
78 726 -4.076316 -5.506301 1.167 
90 726 -1.561387 -8.344007 1.028 
102 726 0.124058 -2.202875 1.104 
114 726 0.115945 0.162232 1.038 
126 726 -0.588217 0.864498 1.154 
138 726 -0.573733 -0.824353 1.315 
150 726 -0.559249 -2.513204 1.193 
162 726 -0.047293 -5.030168 1.318 
174 726 0.464663 -7.547132 1.043 
186 726 -1.197754 -8.491252 1.513 
198 726 -0.307357 -9.160315 2.118 
210 726 -1.183873 -6.019909 2.159 
222 726 -5.367913 -0.992258 1.105 
234 726 -9.291237 3.017033 1.744 
246 726 -10.168866 3.756422 2.022 
258 726 -9.883034 3.701121 1.899 
270 726 -9.600479 3.882700 3.355 
282 726 -9.286640 4.301715 2.446 
294 726 -8.946131 4.684587 3.604 
306 726 -8.301230 5.243145 1.942 
318 726 -8.064410 4.856260 1.582 
330 726 -7.833379 4.842181 1.432 
342 726 -7.454437 4.441658 1.096 
354 726 -7.161490 4.458170 1.586 
366 726 -7.499954 5.776015 2.760 
378 726 -7.366960 6.929343 1.228 
390 726 -7.213352 7.017871 1.912 
402 726 -7.120807 6.845523 37.958 
414 726 -7.147512 6.693114 17.990 
426 726 -6.903541 6.218796 1.687 
438 726 -7.140048 5.316965 1.202 
450 726 -7.499821 2.976988 1.313 
462 726 -7.488572 3.367545 1.001 
474 726 -7.477324 3.758102 1.410 
486 726 -7.531414 4.050238 1.748 
498 726 -7.512911 4.138185 1.785 
510 726 -7.238129 3.746925 2.027 
522 726 -4.669427 3.168560 3.336 
534 726 -4.591262 2.681722 5.051 
546 726 -6.057873 2.573495 2.087 
558 726 -6.643736 2.118299 1.722 
570 726 -6.554032 2.426503 2.498 
582 726 -6.128905 2.930975 1.367 
594 726 -5.481888 3.452707 2.013 
606 726 -4.984498 3.801800 2.342 
618 726 -4.842499 4.100432 2.307 
630 726 -4.633028 4.188838 4.434 
642 726 -1.183736 5.185766 2.558 
654 726 -2.078095 5.065885 1.143 
666 726 -5.699907 4.868146 1.537 
678 726 -3.586319 4.768465 2.114 
690 726 -3.790700 4.307059 1.066 
702 726 -3.690111 3.791840 2.179 
714 726 -4.796613 4.323176 2.234 
726 726 -5.709488 5.099137 1.758 
738 726 -5.928215 5.303797 2.166 
750 726 -5.740671 5.211395 1.438 
762 726 -5.832463 4.844784 1.715 
774 726 -6.052282 4.270384 1.455 
786 726 -6.214952 3.691665 1.276 
798 726 -5.943430 3.094670 2.776 
810 726 -5.408654 2.406666 2.078 
822 726 -3.293566 2.347576 2.025 
834 726 -2.115339 2.506612 1.067 
846 726 -6.896914 2.549418 1.792 
858 726 -6.178152 2.133549 3.438 
870 726 -4.378215 2.151251 1.550 
882 726 -5.650401 4.007129 1.340 
894 726 -6.922587 5.863006 1.256 
906 726 -5.747916 4.494176 1.352 
918 726 -5.694546 2.225512 1.801 
930 726 -4.747164 0.437405 2.268 
942 726 -4.278569 0.206987 2.428 
954 726 -4.213500 0.448742 3.030 
966 726 -4.634180 0.691047 1.021 
978 726 -4.745880 1.442897 1.326 
990 726 -5.466429 2.895779 2.433 
1002 726 -5.493266 3.400072 2.778 
1014 726 -5.609746 2.466534 2.770 
1026 726 -5.821810 1.007057 2.671 
1038 726 -6.101500 0.061300 5.110 
1050 726 -5.847361 -0.386075 3.084 
1062 726 -5.440574 -0.461579 1.754 
1074 726 -5.494611 -0.447583 2.164 
1086 726 -5.213869 -0.630583 3.891 
1098 726 -4.221440 -0.676438 1.046 
1110 726 -3.421196 -0.502442 3.097 
1122 726 -3.338197 -0.053536 5.473 
1134 726 -4.111609 0.219937 1.290 
1146 726 -5.160681 0.221807 1.446 
1158 726 -6.130640 0.420843 1.777 
1170 726 -5.781244 0.524427 1.460 
1182 726 -1.726425 -0.154787 1.076 
1194 726 0.367898 -0.890099 1.049 
1206 726 0.314626 -0.620876 1.048 
1218 726 0.569314 1.431367 1.051 
1230 726 1.586449 1.215173 1.352 
1242 726 3.144822 -2.060375 1.511 
1254 726 7.334100 -3.199431 1.225 
1266 726 19.203069 -4.426555 1.297 
1278 726 22.285827 -6.910273 1.297 
6 714 9.576614 1.261586 1.126 
18 714 8.945921 1.630800 1.075 
30 714 5.834750 8.098886 1.336 
42 714 2.852513 5.230853 1.219 
54 714 0.215379 0.284582 1.014 
66 714 -0.172940 -0.986952 1.191 
78 714 -0.844263 1.629968 1.203 
90 714 -0.760845 -11.177191 1.051 
102 714 -0.160434 -5.957970 1.227 
114 714 0.439977 -0.738750 1.394 
126 714 -1.519595 1.231489 1.287 
138 714 -1.604150 0.811044 1.755 
150 714 -1.688705 0.390598 1.071 
162 714 1.892936 -1.755489 1.007 
174 714 0.185066 -2.932514 1.137 
186 714 0.247679 -7.527961 1.179 
198 714 0.655197 -5.836995 2.508 
210 714 0.499344 -4.881928 1.238 
222 714 -4.999120 -0.109795 1.140 
234 714 -10.115705 3.497975 1.156 
246 714 -10.178488 3.491644 1.591 
258 714 -10.241271 3.485313 2.372 
270 714 -9.811193 3.923225 2.902 
282 714 -9.355101 4.213900 2.009 
294 714 -8.913147 4.832459 2.020 
306 714 -8.363875 4.898537 1.927 
318 714 -8.027873 4.575110 2.300 
330 714 -7.954613 4.380590 2.358 
342 714 -7.789756 4.288662 1.052 
354 714 -7.749048 4.606662 1.562 
366 714 -7.902963 5.339778 1.568 
378 714 -7.809149 6.331598 1.673 
390 714 -7.795719 6.764627 1.400 
402 714 -7.750248 6.840523 2.342 
414 714 -7.484378 6.871213 1.942 
426 714 -6.777896 6.782930 1.947 
438 714 -6.896303 6.080229 1.141 
450 714 -6.868971 3.187735 1.812 
462 714 -6.557191 3.456518 1.508 
474 714 -6.245412 3.725302 6.417 
486 714 -6.213510 3.795161 8.675 
498 714 -6.419233 3.811302 4.211 
510 714 -6.168215 3.826413 1.347 
522 714 -4.856135 3.669253 1.927 
534 714 -4.329245 3.466887 4.599 
546 714 -5.670590 3.252301 1.879 
558 714 -5.998944 3.136421 1.418 
570 714 -5.748448 3.266318 1.776 
582 714 -5.123528 3.638351 2.882 
594 714 -4.286751 3.941763 1.884 
606 714 -3.802777 4.223426 2.270 
618 714 -3.890250 4.360916 3.365 
630 714 -4.128196 4.175605 4.389 
642 714 -2.383711 4.396764 2.422 
654 714 -2.787669 4.351220 1.592 
666 714 -4.172430 4.157002 3.107 
678 714 -3.600466 4.249938 2.456 
690 714 -3.775469 3.960375 1.088 
702 714 -4.291423 3.514221 2.784 
714 714 -5.078081 4.100636 3.509 
726 714 -5.591678 5.054430 4.457 
738 714 -5.583891 5.066258 2.651 
750 714 -5.437155 4.973354 1.293 
762 714 -5.413049 4.497826 1.019 
774 714 -5.918150 4.216381 1.891 
786 714 -6.201983 4.014169 1.621 
798 714 -5.703818 3.354282 2.903 
810 714 -5.154892 2.752754 1.867 
822 714 -2.949393 2.276918 1.091 
834 714 -2.530279 2.351996 1.083 
846 714 -6.379631 2.312215 3.539 
858 714 -5.905721 2.302045 7.815 
870 714 -5.468895 2.863666 3.672 
882 714 -5.394239 4.736712 1.658 
894 714 -5.319583 6.609757 1.029 
906 714 -5.969490 4.944701 1.555 
918 714 -5.863111 1.609407 1.601 
930 714 -5.280711 0.267850 2.278 
942 714 -4.589991 0.065464 4.861 
954 714 -4.220127 0.376563 3.625 
966 714 -4.872938 0.868616 2.766 
978 714 -4.495145 1.798201 1.223 
990 714 -4.639060 2.563268 3.001 
1002 714 -5.108446 2.685224 2.094 
1014 714 -4.882191 1.875272 1.668 
1026 714 -5.288915 0.840964 3.359 
1038 714 -5.559559 0.021624 5.088 
1050 714 -5.583970 -0.290141 2.453 
1062 714 -5.563988 -0.149238 2.580 
1074 714 -5.706468 0.006837 2.535 
1086 714 -5.724770 -0.161297 7.377 
1098 714 -4.878587 -0.274452 1.785 
1110 714 -4.300965 -0.091552 2.460 
1122 714 -4.474994 0.211145 2.851 
1134 714 -4.842379 0.480400 2.518 
1146 714 -5.622438 0.788681 2.620 
1158 714 -6.615686 0.755632 2.432 
1170 714 -6.377681 0.575613 2.460 
1182 714 -2.292602 -0.416334 1.098 
1194 714 2.060658 -0.694386 1.012 
1206 714 1.364636 -0.638811 1.211 
1218 714 1.306401 -1.182086 1.258 
1230 714 3.870855 -6.345612 1.112 
1242 714 5.589312 -7.634587 1.305 
1254 714 9.715834 -7.467208 1.267 
1266 714 21.097513 -7.106164 1.110 
1278 714 21.968408 -6.781798 1.110 
6 702 7.242081 2.264993 1.034 
18 702 8.060188 5.885122 1.018 
30 702 4.792524 8.308126 1.239 
42 702 3.000160 4.806734 1.044 
54 702 0.651847 0.229064 1.436 
66 702 0.367080 -3.871674 2.068 
78 702 0.082313 -7.972412 1.104 
90 702 -0.425827 -8.426644 1.064 
102 702 -0.504206 -5.781777 1.004 
114 702 -0.152823 -0.037809 1.633 
126 702 -3.838210 2.210040 1.021 
138 702 -5.559687 1.404082 1.687 
150 702 -7.281164 0.598125 1.073 
162 702 -4.049033 1.289868 1.276 
174 702 -3.286902 1.047228 1.054 
186 702 -0.420039 -2.196270 1.066 
198 702 1.617750 -2.513676 1.272 